ITEM: TIMESTEP
0
ITEM: NUMBER OF ATOMS
1045
ITEM: BOX BOUNDS pp pp pp
-2.0000000000000000e+00 1.0000000000000000e+01
-2.0000000000000000e+00 1.0000000000000000e+01
0.0000000000000000e+00 3.0000000000000000e+02
ITEM: ATOMS id type mol xu yu zu vx vy vz 
910 4 11 -2 -2 0 -0.517181 -0.307208 -2.3594 
911 4 11 -2 -1 0 -1.17805 -1.01846 0.284395 
922 4 11 -1 -2 0 -1.39896 0.432482 2.60531 
923 4 11 -1 -1 0 -2.82937 -0.570833 -1.35043 
3 2 1 -0.588763 -0.0298921 1.85336 2.37264 1.78717 -1.58019 
1045 3 12 -0.385441 -1.85733 1.13439 0 0 0 
934 4 11 0 -2 0 -0.00874804 0.991215 -0.860254 
935 4 11 0 -1 0 -2.7685 -2.4612 -2.74271 
943 4 11 1 -2 0 1.17895 -1.37279 2.2933 
944 4 11 1 -1 0 -1.11252 2.93785 -0.299525 
955 4 11 2 -2 0 2.38489 1.41961 -0.12067 
956 4 11 2 -1 0 0.423104 -0.499896 -2.98473 
967 4 11 3 -2 0 0.441794 0.0749808 -0.434179 
968 4 11 3 -1 0 1.14725 2.57667 1.05388 
306 2 4 3.84775 -0.513656 1.87404 -0.768939 2.60239 -1.61752 
979 4 11 4 -2 0 1.36292 -2.6149 0.603771 
980 4 11 4 -1 0 2.35819 -1.22318 2.42221 
988 4 11 5 -2 0 -0.595625 1.75867 0.385419 
989 4 11 5 -1 0 -1.49153 0.135305 0.466894 
1000 4 11 6 -2 0 -1.55277 2.05866 1.66086 
1001 4 11 6 -1 0 -0.317821 -2.12434 -2.97321 
1012 4 11 7 -2 0 -0.449164 -2.7659 1.31993 
1013 4 11 7 -1 0 -2.32904 -2.73196 -1.08515 
1024 4 11 8 -2 0 1.50222 -0.897875 1.03808 
1025 4 11 8 -1 0 -0.0733341 0.819556 2.24256 
1033 4 11 9 -2 0 -2.72348 0.415162 0.939235 
1034 4 11 9 -1 0 2.83807 2.6229 0.280823 
912 4 11 -2 0 0 0.951984 0.75966 2.51259 
913 4 11 -2 1 0 0.442851 -0.243433 2.26682 
924 4 11 -1 0 0 1.30926 -0.0524795 -2.15303 
925 4 11 -1 1 0 0.271573 -2.79105 0.661147 
1 1 1 0 0 0 1.075 0.211698 0.0965984 
2 1 1 0 0 1 -1.87392 0.90473 -1.29781 
936 4 11 0 1 0 2.03602 -1.27478 -2.59992 
945 4 11 1 0 0 -2.8446 2.74733 -0.667766 
946 4 11 1 1 0 0.520472 1.94516 -0.553883 
957 4 11 2 0 0 -1.52862 -2.10039 1.57763 
958 4 11 2 1 0 -0.361088 0.282976 -1.81495 
969 4 11 3 0 0 0.129751 1.3188 -0.15005 
970 4 11 3 1 0 1.06611 1.38381 1.08738 
304 1 4 4 0 0 0.229863 1.64705 -0.351664 
305 1 4 4 0 1 1.17723 -0.127696 -0.094538 
981 4 11 4 1 0 0.776696 -2.85417 1.00515 
990 4 11 5 0 0 -0.852975 -0.290458 1.78903 
991 4 11 5 1 0 1.15373 2.95758 -0.344274 
1002 4 11 6 0 0 -0.913895 0.855296 -0.0430702 
1003 4 11 6 1 0 2.25768 -2.09349 2.91097 
1014 4 11 7 0 0 -2.08114 -2.7443 2.47154 
1015 4 11 7 1 0 -2.13715 2.56387 -2.99837 
609 2 7 7.53002 0.17414 1.84036 -1.72728 3.60228 1.61101 
607 1 7 8 0 0 0.896236 -1.60006 -0.663576 
608 1 7 8 0 1 -1.42007 1.34103 -0.462563 
1026 4 11 8 1 0 2.35527 -2.0018 0.447649 
1035 4 11 9 0 0 1.20637 1.23658 -1.29357 
1036 4 11 9 1 0 -1.77303 2.17072 -2.25593 
914 4 11 -2 2 0 -0.0141077 1.35555 2.40527 
915 4 11 -2 3 0 -0.480963 -0.579212 2.52806 
926 4 11 -1 2 0 1.9382 0.669582 1.98342 
927 4 11 -1 3 0 0.332799 1.20038 -0.722383 
104 2 2 -0.0478169 3.42812 1.77383 -0.986858 1.24115 1.65346 
937 4 11 0 2 0 2.22076 -1.57849 0.0281263 
938 4 11 0 3 0 -1.03091 -0.173395 -2.40102 
947 4 11 1 2 0 -2.85453 -1.29733 -1.64595 
948 4 11 1 3 0 2.94028 2.03364 -2.88042 
959 4 11 2 2 0 2.48332 -2.48437 -0.378269 
960 4 11 2 3 0 0.207076 -1.46245 2.85567 
971 4 11 3 2 0 2.53824 -1.90072 -1.08119 
972 4 11 3 3 0 -1.75986 0.440445 -2.23513 
982 4 11 4 2 0 1.15896 0.308178 -0.31954 
983 4 11 4 3 0 -1.58225 0.907977 -0.985631 
992 4 11 5 2 0 -1.24519 -1.94123 -0.611268 
993 4 11 5 3 0 -2.59088 -1.89187 2.89035 
407 2 5 4.2187 3.61388 1.76899 -0.269646 -0.740158 -3.24678 
1004 4 11 6 2 0 -2.93511 0.964431 1.18928 
1005 4 11 6 3 0 2.68161 1.8501 -0.438753 
1016 4 11 7 2 0 -1.64167 -2.76566 -0.831986 
1017 4 11 7 3 0 2.03113 0.889028 0.112568 
710 2 8 7.79684 3.76369 1.88462 0.531951 0.274314 -0.624085 
1027 4 11 8 2 0 1.29473 -2.92819 -1.03281 
1028 4 11 8 3 0 -2.59417 -2.93088 2.1017 
1037 4 11 9 2 0 1.22775 -1.13302 -1.6243 
1038 4 11 9 3 0 -1.04723 2.93739 -1.97155 
916 4 11 -2 4 0 1.10312 2.4282 1.9576 
917 4 11 -2 5 0 0.500613 -0.198469 -1.75164 
928 4 11 -1 4 0 -0.934926 -2.89767 -0.626658 
929 4 11 -1 5 0 -1.98731 0.531756 0.91881 
102 1 2 0 4 0 -1.86069 0.194841 0.179696 
103 1 2 0 4 1 1.9183 -2.04382 -0.343406 
939 4 11 0 5 0 -1.2287 -2.20095 -0.32595 
949 4 11 1 4 0 2.97155 -3.02459 0.833099 
950 4 11 1 5 0 -2.2592 1.32704 -0.324741 
961 4 11 2 4 0 2.26484 -2.45867 -2.44755 
962 4 11 2 5 0 0.498676 -2.60898 -2.36857 
973 4 11 3 4 0 1.14155 -2.89067 2.46035 
974 4 11 3 5 0 2.71809 0.0373398 0.0411978 
405 1 5 4 4 0 -1.55655 -1.21482 -1.68199 
406 1 5 4 4 1 0.107091 0.331431 -1.43879 
984 4 11 4 5 0 0.387987 0.184806 0.345603 
994 4 11 5 4 0 0.321824 -2.36977 2.39381 
995 4 11 5 5 0 -0.112863 -0.293908 -1.9288 
1006 4 11 6 4 0 2.66154 2.22424 -1.09781 
1007 4 11 6 5 0 2.32333 -2.20604 -1.32027 
1018 4 11 7 4 0 1.23172 -0.849447 0.965369 
1019 4 11 7 5 0 1.91181 -2.59589 0.526807 
708 1 8 8 4 0 2.25038 1.80318 0.938157 
709 1 8 8 4 1 2.80246 1.14901 -1.88089 
1029 4 11 8 5 0 -1.50565 -2.05026 -0.113495 
1039 4 11 9 4 0 -0.581778 -0.669089 -0.636295 
1040 4 11 9 5 0 -1.14962 0.53421 -0.0509499 
918 4 11 -2 6 0 -0.82629 2.0154 -1.83802 
919 4 11 -2 7 0 0.667489 0.717653 1.94824 
930 4 11 -1 6 0 -2.79869 2.6341 1.51558 
931 4 11 -1 7 0 -0.07558 -0.748938 1.93284 
940 4 11 0 6 0 -0.785261 -1.82577 -1.63393 
941 4 11 0 7 0 -0.175086 -2.95357 0.627521 
951 4 11 1 6 0 1.44453 0.326662 2.82304 
952 4 11 1 7 0 2.51383 -2.21687 -2.53309 
963 4 11 2 6 0 1.43341 0.311619 -2.78557 
964 4 11 2 7 0 -0.741805 -1.04192 -2.12059 
975 4 11 3 6 0 1.59666 0.705523 -2.93428 
976 4 11 3 7 0 2.20166 -3.01326 -1.67454 
508 2 6 4.3961 7.97951 1.99694 -1.89679 -1.69511 -0.380833 
985 4 11 4 6 0 -1.39405 -1.54356 2.23749 
986 4 11 4 7 0 1.49752 -1.48755 -3.00617 
996 4 11 5 6 0 0.331199 -1.56709 -1.18269 
997 4 11 5 7 0 -1.32719 0.666649 0.939175 
1008 4 11 6 6 0 1.71659 2.42742 0.895374 
1009 4 11 6 7 0 1.2771 2.25275 1.739 
1020 4 11 7 6 0 -0.841469 0.141357 -0.322963 
1021 4 11 7 7 0 1.18377 1.18734 -2.75579 
811 2 9 7.99562 7.75141 1.92351 -1.43547 -2.55919 -0.221713 
1030 4 11 8 6 0 0.421624 -1.26547 -2.8659 
1031 4 11 8 7 0 -0.178463 0.595048 -2.57413 
1041 4 11 9 6 0 2.47493 1.29591 1.04276 
1042 4 11 9 7 0 0.187428 -0.0707114 -1.0674 
920 4 11 -2 8 0 -0.125625 2.29144 0.718646 
921 4 11 -2 9 0 -2.43296 -0.751874 0.825975 
932 4 11 -1 8 0 0.436041 -0.142107 -1.11739 
933 4 11 -1 9 0 -1.2201 -2.36433 -2.6797 
203 1 3 0 8 0 1.16276 -2.19764 1.07231 
204 1 3 0 8 1 2.39823 2.55414 2.28811 
942 4 11 0 9 0 -2.45566 -2.48914 -2.07261 
953 4 11 1 8 0 -2.16957 0.284516 -0.0662185 
954 4 11 1 9 0 -0.901875 -2.13851 0.0426798 
965 4 11 2 8 0 2.78475 -1.08197 0.0683068 
966 4 11 2 9 0 -1.03204 -1.03921 1.28457 
977 4 11 3 8 0 -1.289 -2.59544 2.02493 
978 4 11 3 9 0 -1.3964 1.1121 -1.11257 
506 1 6 4 8 0 -2.82056 2.76959 -0.392529 
507 1 6 4 8 1 1.72139 -1.37393 1.24118 
987 4 11 4 9 0 -0.194791 -2.51077 2.171 
998 4 11 5 8 0 1.81797 -0.104684 0.761684 
999 4 11 5 9 0 -2.65198 2.2654 -2.74508 
1010 4 11 6 8 0 -1.59184 2.52482 -2.06597 
1011 4 11 6 9 0 -1.79086 -1.94394 2.14194 
1022 4 11 7 8 0 -0.65441 2.61972 1.15141 
1023 4 11 7 9 0 -0.739151 1.36852 -2.56444 
809 1 9 8 8 0 -0.485875 1.27456 -2.01467 
810 1 9 8 8 1 -1.8574 1.15924 1.20204 
1032 4 11 8 9 0 1.55453 -2.0013 2.84569 
1043 4 11 9 8 0 0.913657 1.76202 2.52106 
1044 4 11 9 9 0 -1.86865 -0.979161 -2.44283 
4 2 1 -1.00789 -0.142792 2.60792 0.483536 0.780178 1.36773 
5 2 1 -1.53595 -0.192394 3.47683 0.499918 -1.87365 -0.095434 
308 2 4 3.01914 -1.94799 2.93617 1.47004 -1.23428 1.10081 
307 2 4 3.58716 -1.33192 2.49141 -0.884338 -2.0746 -0.390227 
611 2 7 6.51616 -0.113726 3.3674 -0.724208 -0.185717 0.796632 
610 2 7 6.96717 -0.0544858 2.54684 2.5444 -1.63912 0.859482 
105 2 2 0.250631 2.95713 2.69635 -1.07462 1.03921 1.68922 
106 2 2 0.380875 2.60755 3.42041 2.18961 -1.57695 2.26098 
408 2 5 4.53451 3.43122 2.78566 -1.90612 1.68518 0.979905 
409 2 5 4.68969 3.43505 3.85842 0.937549 -2.37475 0.947292 
711 2 8 7.85205 3.6735 2.93031 0.987794 1.14906 -0.0458739 
712 2 8 7.9155 3.5004 3.81547 2.14545 -0.0176493 -2.12548 
205 2 3 -0.325834 7.77676 2.07941 -0.273502 2.16168 -0.65474 
206 2 3 -0.676893 7.40091 2.94799 1.08287 -2.27077 -0.0748759 
207 2 3 -0.869358 7.1606 3.93133 -1.73841 0.434768 1.48146 
509 2 6 4.33336 7.63064 2.99343 -0.930096 -0.130064 0.375309 
510 2 6 4.20038 7.29429 3.91934 0.42668 -0.302807 -0.152794 
812 2 9 7.84071 7.68726 2.7136 -1.53938 -1.51348 0.195003 
813 2 9 7.61115 7.83704 3.62419 1.72673 -0.482992 0.0512918 
309 2 4 2.28544 9.8741 3.52859 -0.454865 -0.588473 0.454674 
6 2 1 -1.78683 -0.53286 4.26483 1.09944 -0.423992 -0.0864213 
613 2 7 5.79788 -0.724844 5.13146 2.05849 -0.122511 -1.49224 
612 2 7 5.8224 -0.33207 4.15971 -2.91057 -1.04342 -1.68326 
7 2 1 9.5477 -0.948762 5.09734 0.39288 0.983504 -0.729294 
107 2 2 0.4425 2.04695 4.32615 1.12785 2.84058 -1.26546 
108 2 2 0.383125 2.21144 5.28591 1.01107 -2.25228 1.54376 
410 2 5 4.60353 3.10558 4.82256 -0.289266 0.0391905 -1.94221 
411 2 5 4.59037 2.98011 5.71331 0.483422 -2.03075 -3.36003 
713 2 8 8.09436 3.19725 4.79765 -1.81186 -0.670932 0.431354 
714 2 8 8.05883 2.87969 5.81617 4.28109 3.57097 -0.199614 
208 2 3 -1.001 6.84178 5.03098 -0.24863 2.05358 -0.748852 
511 2 6 3.95264 7.16765 4.94899 0.100032 0.172142 0.146033 
512 2 6 3.66587 7.40264 5.94252 -2.84841 -0.924153 0.611842 
815 2 9 7.85286 7.20881 5.30419 -2.71166 1.32906 -0.26588 
814 2 9 7.69474 7.51966 4.35405 2.61109 0.891657 -1.55261 
310 2 4 1.82021 9.95214 4.45867 1.75317 -0.2981 -2.31284 
311 2 4 1.62214 9.6579 5.47196 -1.61509 -0.889875 2.00602 
615 2 7 5.46828 -0.728415 7.06845 -2.13705 -0.0313465 -1.13938 
614 2 7 5.6005 -0.712941 6.22197 -0.774673 -0.398538 -0.288318 
616 2 7 4.99408 -0.645661 7.93239 -3.32578 -2.12354 0.517971 
8 2 1 9.49281 -1.18438 6.14689 1.88342 -0.702598 1.19219 
9 2 1 9.25612 -1.03081 7.08283 0.447568 -1.03134 -0.977656 
10 2 1 8.94715 -1.03521 7.87384 0.953901 -0.558792 -2.2085 
110 2 2 -0.312033 2.20559 7.00022 -2.81443 -2.80813 2.8644 
111 2 2 -0.632258 2.34533 7.97176 0.125706 0.566865 2.53965 
109 2 2 0.10244 2.3743 6.20122 0.46171 -0.780595 -1.84729 
413 2 5 3.52906 3.16529 7.42728 -3.15041 0.368857 -0.711138 
412 2 5 4.22257 3.14564 6.54455 -1.04041 -1.94673 2.59716 
716 2 8 7.52732 2.26489 7.63167 -1.51719 0.791476 0.0397886 
715 2 8 7.7086 2.52899 6.5873 0.828705 0.673542 0.227902 
818 2 9 7.58953 5.68854 7.94279 -0.769007 -0.831185 -0.170134 
209 2 3 -1.08587 6.83125 6.04339 1.33545 1.14184 1.26256 
210 2 3 -1.21638 6.66764 7.15638 0.536838 -0.484286 0.805965 
513 2 6 4.04749 7.41381 6.85172 -0.675969 0.523498 1.18833 
514 2 6 4.19366 7.61719 7.90313 -2.952 -0.971971 3.12933 
817 2 9 7.54562 6.2085 7.12377 -1.93269 1.58669 -0.955601 
816 2 9 7.92987 6.77526 6.2878 0.888045 -0.601475 -1.49423 
314 2 4 -0.211119 9.67056 7.59683 0.546574 2.85333 2.86383 
312 2 4 1.16661 9.59213 6.28157 2.52215 -1.15216 -3.28829 
313 2 4 0.417498 9.51419 6.88237 -1.29262 0.300844 0.9564 
618 2 7 4.21292 -0.501518 9.69161 0.723199 -2.1082 0.373121 
617 2 7 4.51008 -0.591256 8.74331 1.86589 1.11467 1.56444 
11 2 1 8.72258 -1.17678 8.91547 3.92246 1.71835 1.69528 
12 2 1 8.19896 -1.22621 9.92683 -2.3375 -0.317751 -1.99655 
113 2 2 -1.02963 1.31532 9.62281 -0.167623 1.13041 0.544575 
112 2 2 -0.8327 1.89828 8.86213 0.00804195 0.646464 -2.7816 
718 2 8 7.40303 1.96081 9.41358 -3.35073 0.633184 3.26068 
415 2 5 3.58415 3.27026 9.20565 -1.43809 -1.69145 -0.732029 
414 2 5 3.42227 3.21534 8.32971 -0.71875 -1.77073 0.197312 
717 2 8 7.44193 2.15067 8.56407 -0.722705 2.83904 -0.360341 
820 2 9 7.41256 5.14701 9.87515 -0.681186 2.63091 1.9502 
819 2 9 7.45323 5.09986 8.7774 1.08171 0.696318 -0.482394 
211 2 3 -0.936896 6.78576 8.10958 -0.75006 -1.41175 1.26692 
212 2 3 -1.02415 6.9083 9.05786 0.471032 0.53432 -0.92201 
213 2 3 -0.969992 6.68354 9.98018 -0.0723639 -0.264108 -2.0992 
515 2 6 3.81277 7.55262 8.84137 1.77235 -0.617648 -2.65578 
516 2 6 3.563 7.246 9.79876 -1.77114 0.225703 3.52423 
315 2 4 -0.474313 9.8403 8.60537 0.369321 1.12459 -0.330697 
316 2 4 -0.184557 9.9291 9.37976 -0.430775 -3.44005 -1.88664 
620 2 7 3.41565 -0.657913 11.4868 -2.84755 -1.17298 -0.966983 
619 2 7 3.7453 -0.491902 10.569 -0.51853 0.333935 2.33318 
13 2 1 7.69834 -1.57996 10.8145 0.611444 -0.215727 2.73071 
114 2 2 -1.03203 0.76651 10.3946 -1.27545 -0.0841425 0.759009 
115 2 2 -1.10474 0.665456 11.4792 1.36409 1.1122 0.147996 
720 2 8 7.10573 1.64239 11.3158 2.42553 -0.755471 0.00610267 
719 2 8 7.29844 1.63513 10.4135 0.0576401 0.439198 2.58755 
417 2 5 3.67385 2.7609 11.2043 3.34419 -1.06776 1.03847 
416 2 5 3.77197 3.16622 10.2231 -3.31085 0.620516 -0.506423 
821 2 9 7.546 5.17042 10.8875 -0.551326 -0.0526236 1.11383 
822 2 9 7.28944 5.39908 11.6782 -0.365764 -0.314858 -1.64212 
215 2 3 -1.29034 6.043 11.7305 2.57071 -2.15104 1.89289 
214 2 3 -1.09517 6.40064 10.8802 -0.397644 0.0679453 2.0035 
517 2 6 3.69178 7.20049 10.816 0.188121 0.276481 -0.631237 
518 2 6 3.72469 7.33553 11.8163 -0.655806 0.179969 0.900859 
317 2 4 0.120582 9.90956 10.2711 -1.26866 -1.79943 -0.999561 
318 2 4 0.378964 9.21251 11.1581 3.70938 -1.38116 -1.06127 
14 2 1 7.65137 9.82601 11.6283 -2.7064 -1.80515 0.602964 
622 2 7 2.82895 -1.0951 13.5098 -1.80836 -0.642255 -0.700347 
621 2 7 3.18153 -0.920569 12.5083 1.40215 0.856398 -1.36203 
116 2 2 -1.11571 0.288462 12.4804 -2.10029 -1.27824 1.89141 
117 2 2 -1.22851 0.116943 13.4388 -0.576175 1.13047 0.952425 
722 2 8 7.35171 1.26456 13.2038 -0.239852 0.748504 -2.773 
721 2 8 7.29803 1.47478 12.322 -2.53433 0.280666 0.509076 
419 2 5 3.96902 2.14573 13.1946 -0.0316749 0.819258 0.491234 
418 2 5 4.01847 2.40517 12.1284 -0.448821 -0.500944 1.39804 
218 2 3 9.94146 3.79313 13.3642 -0.00784998 0.432538 0.846913 
216 2 3 -1.45392 5.38771 12.2369 1.82999 0.579203 1.80575 
217 2 3 -1.75041 4.36649 12.6621 -2.63695 -1.8998 -0.938073 
823 2 9 7.25716 5.18089 12.5824 1.24641 2.01867 0.789975 
824 2 9 6.95698 4.74345 13.4318 -1.28648 -0.0672497 -1.82302 
320 2 4 0.425211 7.97825 13.1219 -0.856584 2.63212 0.2836 
519 2 6 3.7522 7.14687 12.6799 0.763973 -1.49194 2.80818 
520 2 6 3.89935 6.92415 13.7499 -0.735465 0.663681 -1.78219 
319 2 4 0.602004 8.88051 12.1278 1.41495 -0.584416 -0.972993 
15 2 1 7.4423 9.61415 12.5923 0.812047 1.4832 -0.799201 
16 2 1 7.18255 9.06186 13.4224 -3.59339 0.520546 -0.822182 
118 2 2 -1.31384 -0.219273 14.331 -0.87371 0.339259 3.08367 
119 2 2 -1.78613 -0.620845 15.1132 -0.30539 -2.11508 1.22631 
623 2 7 3.13523 -1.20969 14.4887 2.04234 4.00005 0.482792 
624 2 7 3.56858 -1.33671 15.4605 -1.38412 0.687357 4.0715 
420 2 5 3.86557 1.9545 14.2484 6.37434 -0.462625 2.30445 
723 2 8 7.52331 1.15969 14.2837 0.113863 -1.0922 -1.43776 
724 2 8 7.48904 1.37211 15.2346 -0.203941 1.72688 -0.85939 
219 2 3 -1.75125 3.40613 14.3515 1.52774 2.4767 0.894625 
220 2 3 -1.3846 3.04341 15.3233 -1.7908 -1.86714 -2.13553 
421 2 5 3.63499 2.0216 15.197 0.589108 0.849158 -3.51688 
825 2 9 6.73138 4.56636 14.2884 1.46864 -0.218714 1.6977 
826 2 9 6.90309 4.59371 15.1501 0.340847 -0.742304 -0.533186 
322 2 4 -0.0168291 7.64997 15.2409 0.499139 1.06008 -0.864625 
321 2 4 0.295772 7.81451 14.1077 0.940205 0.981939 -0.869299 
522 2 6 4.17174 6.2534 15.7387 -0.984882 -0.936557 0.701163 
521 2 6 4.1775 6.66785 14.71 -0.627483 3.03483 1.04586 
17 2 1 6.7548 8.98436 14.3758 2.56554 -0.040894 -2.0536 
18 2 1 6.32324 8.78367 15.248 -1.50455 -1.15056 -0.93209 
19 2 1 6.19379 8.43447 15.9817 2.53983 1.58551 -0.904799 
120 2 2 -1.56294 -0.513294 16.1101 -0.996606 -0.338528 0.111259 
121 2 2 -1.0395 -0.539942 17.0166 -1.58992 0.681921 2.07346 
625 2 7 3.95099 -1.51448 16.5024 -1.79366 1.04416 2.07338 
626 2 7 4.04656 -1.90842 17.2968 -0.473394 1.57172 1.35279 
422 2 5 3.5554 1.9327 16.038 -1.80878 -0.118029 -0.651005 
725 2 8 7.30802 1.18137 16.424 -1.33856 -0.121323 0.868902 
726 2 8 7.12722 0.854397 17.1464 1.05086 -1.12721 0.252485 
221 2 3 -1.24418 2.71502 16.2745 0.682899 -0.58732 0.788677 
222 2 3 -1.3352 2.74632 17.498 -1.37174 -2.25471 3.22185 
423 2 5 3.49341 2.04533 17.2338 -1.89248 -1.16064 -0.370172 
524 2 6 3.63867 5.95095 17.6299 1.89512 0.122505 -1.34111 
828 2 9 6.60404 4.38423 17.1981 2.66033 1.5105 -0.942251 
827 2 9 6.66735 4.53272 16.2698 -0.490762 -0.310031 -0.820167 
323 2 4 -0.187852 7.47068 16.1001 2.87478 1.52505 -0.826192 
324 2 4 -0.366977 7.5506 17.2564 -2.28396 2.21587 -0.71747 
523 2 6 4.0248 6.11791 16.711 -1.13914 -0.184416 0.800441 
21 2 1 7.18557 7.8994 17.5433 0.563871 -0.380338 -1.92762 
20 2 1 6.56555 8.19699 16.8228 1.12916 0.753891 2.54143 
122 2 2 -1.28894 -0.4911 18.0614 2.52021 -1.29758 0.643264 
123 2 2 -1.88863 -0.415481 18.987 0.396638 0.979906 2.60146 
729 2 8 6.00759 -0.399206 19.7017 -1.15939 2.31861 0.344161 
728 2 8 6.45453 -0.110274 18.9409 0.326299 -1.20875 -2.575 
124 2 2 9.8651 -0.559643 19.8802 -1.76518 3.19677 -0.986236 
424 2 5 3.5334 1.74825 18.2001 0.323896 -1.4879 0.478504 
425 2 5 3.40155 1.41955 18.9205 -1.10857 2.03112 2.02107 
426 2 5 3.14505 1.32389 19.8108 3.16543 -1.47995 1.28873 
727 2 8 6.79127 0.411132 18.1319 1.92507 -0.0949372 -1.68075 
223 2 3 -1.1192 3.09339 18.3913 -1.97975 1.58092 -1.27517 
224 2 3 -1.35296 3.36458 19.1603 -0.735792 -0.654402 1.0608 
526 2 6 3.48123 5.31724 19.6083 -0.439043 -2.26069 0.729267 
525 2 6 3.66334 5.86591 18.7115 -1.47319 0.626034 -0.590383 
830 2 9 6.40514 4.1381 19.0263 0.39139 -0.318127 -2.81909 
829 2 9 6.53049 4.28802 18.0239 -0.81505 -0.80194 0.217504 
325 2 4 -0.566111 7.3829 18.0395 0.269224 -0.529014 2.22218 
326 2 4 -0.449817 7.45165 19.0887 -0.811223 0.161558 0.838315 
327 2 4 -0.429486 7.27247 19.8706 0.346585 -1.07079 -1.84574 
627 2 7 3.84651 9.86028 18.3348 -0.776536 0.516908 -0.70648 
629 2 7 2.67421 9.38531 19.8849 -0.106363 -1.76592 -1.71851 
628 2 7 3.30168 9.5372 19.194 -2.13251 0.733082 -0.535919 
22 2 1 7.53262 8.14693 18.4463 -1.47028 -1.80085 2.88447 
23 2 1 7.8325 8.16138 19.3926 -0.60357 -1.42601 1.70138 
731 2 8 5.54697 -0.405448 21.7689 0.620154 0.905415 1.32964 
730 2 8 5.73193 -0.250853 20.5524 -2.11885 -0.394813 -1.77379 
125 2 2 9.57759 -0.704367 20.815 -2.07886 2.54533 0.217282 
126 2 2 9.64141 -1.16388 21.6614 -2.69998 0.406491 2.47969 
427 2 5 3.06412 1.23398 20.7062 1.21618 1.49121 2.29538 
428 2 5 2.77616 1.59862 21.5528 -1.5531 1.38312 2.93323 
225 2 3 -1.84274 3.46007 20.0791 2.0158 -1.10355 -0.386936 
832 2 9 6.51582 3.61853 21.0086 -0.979513 -2.21732 1.15839 
831 2 9 6.5257 3.90923 20.0671 1.23061 1.90262 0.869786 
833 2 9 6.70865 3.47515 21.9963 3.30743 0.270916 -0.499942 
226 2 3 9.83635 3.199 20.8724 -0.115476 1.61244 2.45008 
227 2 3 9.7262 3.06442 21.9707 3.69892 -0.162979 0.727973 
528 2 6 3.77571 5.43632 21.6227 0.413347 -1.72153 0.108027 
527 2 6 3.49533 5.21782 20.7312 -0.171592 1.73624 -0.936589 
328 2 4 -0.425003 7.47112 20.7226 -1.12112 -2.56988 -0.793447 
329 2 4 -0.617844 7.7343 21.4763 0.140893 -0.445256 -2.78615 
631 2 7 1.77777 8.89678 21.4145 -0.883877 -0.899324 2.60561 
630 2 7 2.15095 9.04851 20.5827 -0.95236 -2.07716 0.973426 
24 2 1 7.8804 8.35568 20.3297 -0.905855 -3.19087 -0.476296 
25 2 1 7.51431 8.13146 21.4001 -0.927068 -0.884121 -0.734059 
732 2 8 5.19628 -0.641203 22.7119 1.47191 -2.01512 3.30079 
733 2 8 4.66836 -0.977347 23.6048 -2.37597 -1.46002 -0.183969 
127 2 2 9.81585 -1.3302 22.6405 -2.16889 -1.15458 1.7856 
128 2 2 9.73961 -1.55572 23.4215 0.608435 0.195381 -1.01028 
430 2 5 2.22045 1.8384 23.3695 -0.933933 1.10631 0.875186 
228 2 3 -1.86049 3.01662 22.9466 -0.877442 -0.817446 -0.194238 
229 2 3 -1.54023 3.03846 23.7925 -0.190669 -0.266979 0.117752 
429 2 5 2.47337 2.00387 22.2548 1.29244 2.40597 0.905026 
834 2 9 6.83258 3.12307 22.9668 -1.87879 2.59548 1.05531 
835 2 9 6.43645 3.23968 23.9755 0.774328 2.9839 2.0048 
529 2 6 3.81584 5.61039 22.4938 0.255152 -0.701982 -3.30134 
530 2 6 3.93735 5.27669 23.4353 -1.87381 0.748176 -0.342815 
331 2 4 -1.10339 7.88523 23.4184 0.381226 -0.309401 -0.882912 
330 2 4 -0.980385 7.83164 22.3717 0.732253 0.214949 0.964804 
27 2 1 6.93208 7.32038 23.3701 -0.787847 -0.165328 2.05355 
26 2 1 7.31617 7.7871 22.4061 -1.53935 0.74705 -2.62742 
632 2 7 1.78169 9.1956 22.4054 1.57467 2.4448 -0.821391 
633 2 7 2.05854 9.32475 23.4602 -1.39795 -1.09854 1.40654 
734 2 8 4.29638 -0.924198 24.5008 2.07015 -0.191407 1.3543 
735 2 8 4.32534 -0.833204 25.4571 -1.41179 0.365705 0.117353 
129 2 2 9.94317 -1.70173 24.2956 -0.956392 -2.82649 -1.50292 
130 2 2 9.83269 -1.52895 25.1883 -0.164301 0.410642 1.72166 
432 2 5 1.89186 1.01157 25.577 -0.0151612 0.611598 -1.49537 
431 2 5 2.09239 1.36025 24.4908 1.79678 -1.60902 -0.210968 
231 2 3 -1.78262 2.45779 25.6893 -1.8771 -0.712302 -0.293041 
230 2 3 -1.58996 2.83287 24.7572 -0.641786 -2.07729 -0.0135218 
837 2 9 5.56779 2.79679 25.5666 -1.24038 -1.84489 -0.401244 
836 2 9 6.18266 3.18291 24.7818 1.72208 -1.83414 -0.876663 
531 2 6 3.80865 4.80647 24.1923 -0.0331422 -2.44403 3.78265 
532 2 6 3.49654 4.40289 25.1814 -0.897781 2.6966 0.138683 
332 2 4 -0.899303 7.37611 24.3216 -0.123149 -3.07132 -0.250917 
333 2 4 -0.895662 6.90009 25.2967 1.20576 -1.25853 1.21424 
29 2 1 5.67649 6.78806 24.7679 -3.76733 -0.365584 3.88833 
30 2 1 5.28356 7.06747 25.7209 -0.336042 -1.75135 -2.36138 
28 2 1 6.47396 7.0536 24.1916 -0.691101 1.38074 -0.834388 
635 2 7 1.87691 9.72785 25.3053 0.730266 0.592301 -0.187908 
634 2 7 2.06656 9.34805 24.354 0.928159 -0.444208 0.298088 
131 2 2 -1.93004 -1.12351 26.0845 -0.644732 -0.453081 0.587904 
737 2 8 4.25898 -0.86582 27.5237 2.43595 -1.57024 -1.3958 
736 2 8 4.42183 -0.787637 26.5144 -1.03653 2.39648 -1.75291 
132 2 2 9.93471 -0.75824 27.0912 -1.21652 -1.70794 4.32376 
133 2 2 9.82393 -0.586009 27.9622 0.584911 -1.20037 -1.06526 
433 2 5 1.74278 0.707585 26.6917 0.401103 -1.08309 -3.2116 
434 2 5 1.07977 0.558399 27.3466 3.36103 0.634705 2.47478 
839 2 9 5.66931 1.92844 27.4456 0.120816 0.862217 -1.71047 
232 2 3 -1.84088 2.38414 26.6967 1.44496 2.82887 -1.85812 
838 2 9 5.33025 2.26957 26.4193 0.0523699 -2.17291 0.73991 
233 2 3 9.92145 2.00478 27.7718 2.17869 -1.08777 -0.728799 
533 2 6 3.3941 4.29859 26.2511 0.403377 -1.79678 -0.281211 
534 2 6 2.96613 4.38856 27.242 2.54452 -0.926664 -0.987614 
334 2 4 -1.1323 6.49819 26.316 -1.83578 1.22316 0.705444 
335 2 4 -1.41421 6.17278 27.1658 -0.784159 1.39166 2.08568 
31 2 1 5.24608 7.1405 26.8046 0.532122 1.18782 0.139963 
32 2 1 5.10817 7.38499 27.8435 -1.22238 -0.590908 1.55933 
637 2 7 1.59459 9.92819 27.424 -1.67925 2.29168 -3.54521 
636 2 7 1.65466 9.97159 26.3742 -1.04901 2.50487 1.3349 
739 2 8 4.00605 -0.87205 29.5324 -0.399996 0.0391366 -0.265452 
738 2 8 4.16476 -0.836577 28.5561 1.44896 -1.10098 1.01813 
134 2 2 9.55782 -0.687976 29.0558 -2.56998 -0.309621 1.74759 
135 2 2 9.22918 -0.923274 29.8708 1.59928 -1.20754 -1.18933 
234 2 3 -1.98862 1.92705 28.8391 -0.564258 -1.81003 -1.9343 
435 2 5 0.608664 0.509155 28.1191 0.30707 0.73863 -0.343872 
436 2 5 0.601264 0.555045 29.2187 -2.43522 -0.431397 -1.38848 
840 2 9 5.87462 1.80402 28.3325 2.24905 0.603602 0.584018 
235 2 3 9.81023 1.90113 29.6965 -1.24527 1.96245 0.332445 
841 2 9 6.0216 2.17607 29.3169 0.497144 0.549137 0.253116 
535 2 6 2.64889 4.53106 28.0525 -2.40042 -0.269423 0.0395679 
536 2 6 2.5042 5.10365 29.0333 -1.29788 3.08019 0.880094 
336 2 4 -1.65039 6.42847 28.1102 2.01506 -2.52156 1.50627 
34 2 1 5.33432 7.95363 29.7144 -1.14116 2.41932 1.02063 
33 2 1 5.33559 7.62611 28.7213 2.10407 1.08433 2.79824 
337 2 4 9.84421 6.64098 28.9928 2.01559 -3.57006 1.48564 
338 2 4 9.20306 6.65433 29.883 -1.93576 0.533401 -0.00868971 
638 2 7 1.43112 9.84266 28.4218 -1.63278 -2.42916 -0.0995622 
639 2 7 1.19587 9.16563 29.0114 1.77025 0.0786232 1.14591 
640 2 7 0.647229 8.42231 29.8161 -0.635786 -0.293838 -0.678577 
740 2 8 3.83372 -0.699538 30.4366 -1.81279 0.927025 0.00411226 
741 2 8 3.28837 -0.606619 31.3228 0.0363461 2.2238 -0.101705 
136 2 2 9.02859 -0.828414 30.835 1.60654 2.70201 -0.721498 
137 2 2 8.91046 -0.875053 31.8276 -0.165438 -0.621659 0.773587 
437 2 5 0.718515 0.678389 30.2284 3.12351 0.429547 1.67646 
438 2 5 0.690945 1.3625 31.1638 -0.428408 -0.816699 -1.89138 
236 2 3 9.36466 1.69123 30.6977 2.50695 -0.537077 1.35824 
237 2 3 9.3248 1.54064 31.7435 0.347201 -2.33797 0.182657 
439 2 5 0.94026 2.02417 31.9178 -2.96135 0.992971 0.588218 
842 2 9 5.92066 2.18963 30.2838 0.312055 -1.10785 -0.874178 
843 2 9 5.77735 2.02939 31.3316 -2.68938 1.74313 1.81787 
537 2 6 2.58174 5.51442 30.0625 -0.490673 0.241796 -0.315187 
538 2 6 2.61184 5.58764 30.9964 4.77713 -5.42241 2.02098 
642 2 7 -0.0854776 7.71624 31.3946 1.04353 -2.68824 -1.67943 
539 2 6 2.60381 6.16707 31.8908 -1.77782 1.35769 2.98362 
340 2 4 7.77359 6.18684 31.2841 1.77517 -3.35679 -2.85857 
339 2 4 8.4386 6.41419 30.6417 -0.891159 -2.94946 0.747571 
641 2 7 0.293948 8.01963 30.5845 0.973507 -2.79363 1.56317 
35 2 1 5.17554 8.09579 30.7378 -0.764813 3.73242 4.05035 
36 2 1 4.57927 8.59438 31.6423 1.23888 1.91127 -0.43154 
743 2 8 3.39347 -0.309399 33.3636 2.4641 1.35095 1.04688 
742 2 8 3.28974 -0.423976 32.3829 2.3939 0.636867 0.122123 
138 2 2 8.8459 -1.2678 32.7915 0.956886 0.235363 -0.300114 
139 2 2 9.00359 -1.63365 33.6771 -1.52793 0.519501 2.24836 
239 2 3 -1.85093 1.65658 33.4821 1.31781 -1.88091 -0.253736 
844 2 9 5.94188 1.8698 32.3404 0.141867 1.27391 -0.374187 
845 2 9 6.03443 1.79243 33.2302 -1.06237 -0.919937 2.12198 
238 2 3 9.68783 1.70802 32.6431 -1.37604 0.372484 0.822331 
441 2 5 1.54257 2.44856 33.8205 -0.864196 -0.391814 0.393009 
440 2 5 1.03644 2.57258 32.8919 -0.693015 -1.33884 0.0980703 
643 2 7 -0.0372157 7.99495 32.3651 0.0507972 0.71332 -3.77827 
540 2 6 2.42195 6.28649 32.8056 0.278939 0.992227 1.14759 
541 2 6 2.25141 6.44198 33.8188 -1.08254 0.285522 -3.86848 
342 2 4 7.60344 6.14881 33.1507 1.755 0.646874 -2.25022 
341 2 4 7.5196 6.25581 32.3335 2.50734 -2.37683 -0.344491 
644 2 7 -0.137246 8.02934 33.5099 1.64622 1.36925 -2.42584 
37 2 1 4.50874 8.74794 32.7258 0.0745474 -1.82151 -0.302127 
38 2 1 4.53563 8.71169 33.7088 0.442042 1.26586 -3.45193 
744 2 8 3.8274 -0.327383 34.2792 -3.03432 0.948655 -0.250959 
745 2 8 3.91951 -0.115718 35.1984 -0.00867317 1.01853 1.48492 
140 2 2 8.85267 -1.51441 34.8839 -0.72004 0.134685 -0.718616 
141 2 2 8.68432 -1.55805 35.8625 0.647557 -1.53613 0.694737 
240 2 3 -1.39858 1.72205 34.3251 -0.241675 0.193665 -0.0567772 
241 2 3 -0.990364 1.87196 35.3417 1.41749 1.93453 -2.97394 
847 2 9 6.23692 1.80363 35.1049 3.2115 -2.21841 1.48526 
846 2 9 6.188 1.78485 34.1332 2.58062 -1.05968 2.09453 
443 2 5 2.19251 3.15363 35.8807 1.00337 -2.97117 -0.30488 
442 2 5 2.13237 2.91538 34.7331 -0.574701 -1.96053 -0.554167 
344 2 4 8.69838 5.91598 35.0065 -2.86964 0.590811 -1.25425 
543 2 6 1.62306 7.01152 35.7181 0.464151 -0.348549 3.08957 
542 2 6 2.00704 6.73514 34.844 0.335675 0.30644 0.328631 
343 2 4 8.23207 6.03431 34.0048 0.34271 0.366928 0.62111 
646 2 7 -0.312679 9.29637 35.0142 -0.245901 1.85988 -1.41402 
645 2 7 -0.196352 8.80344 34.1719 -1.16348 -0.531364 0.764571 
647 2 7 -0.348054 9.92624 35.699 0.99155 0.593928 1.0501 
39 2 1 4.56591 8.47886 34.7316 0.0783167 -0.823049 -0.0238377 
40 2 1 5.04809 8.41563 35.7261 -0.536826 -0.189777 -0.642965 
648 2 7 -0.446215 -1.90311 36.6564 -2.97738 0.536106 -0.280043 
649 2 7 -0.72087 -1.71789 37.5423 -2.21198 -0.870669 1.62082 
746 2 8 3.59778 -0.182584 36.0456 2.05377 0.552854 0.4243 
747 2 8 3.30765 -0.0543092 36.9323 0.118842 -0.42496 -2.1504 
143 2 2 7.94774 -1.63554 37.6782 -1.16481 -0.934443 0.881768 
142 2 2 8.15076 -1.91078 36.6741 -0.348151 0.467293 2.17417 
242 2 3 -0.983534 1.97723 36.3746 1.51446 0.893487 -1.09795 
848 2 9 6.31623 1.98505 36.1085 1.35888 1.1971 -1.70182 
243 2 3 -0.821432 2.0756 37.3073 -0.237966 -1.16011 3.00436 
444 2 5 2.30043 3.55145 36.8376 1.42113 3.39874 -1.62069 
445 2 5 2.49708 3.87598 37.8632 0.399758 -1.35089 -0.00751773 
849 2 9 5.95568 2.20562 36.8612 -0.338707 2.36444 -0.924642 
850 2 9 5.63314 2.71477 37.8386 0.385603 0.163315 1.3312 
346 2 4 8.79396 5.94723 37.2548 -0.478718 -1.91362 0.420551 
544 2 6 1.44713 6.80088 36.497 -2.35831 3.36764 0.310873 
545 2 6 1.23143 6.64773 37.4269 0.312996 -0.109303 -2.64461 
345 2 4 8.65374 6.12786 36.0605 -0.849838 -1.16675 -0.203594 
41 2 1 5.01471 8.71765 36.8436 1.11014 -0.051117 -0.842864 
42 2 1 5.16668 8.61136 37.8281 -1.25962 1.29246 -0.670021 
650 2 7 -0.418846 -1.40423 38.4991 2.97476 1.17957 0.62017 
651 2 7 -0.357139 -0.838405 39.3969 -1.25434 0.873474 0.580577 
748 2 8 3.37741 -0.0741278 38.0822 -2.25773 -0.173628 0.266647 
749 2 8 3.37627 -0.0190944 39.0402 -2.25464 0.898226 1.82059 
144 2 2 7.94508 -1.14458 38.4836 1.75763 0.264894 0.499608 
145 2 2 8.16884 -0.601569 39.4353 0.45216 3.93807 2.87431 
245 2 3 -0.951002 2.48936 39.0998 0.284696 0.504869 -0.888655 
244 2 3 -1.09077 2.11617 38.2011 1.68198 -0.0183242 0.247393 
446 2 5 2.84269 3.79012 38.7131 1.70662 -0.480042 -2.58735 
447 2 5 2.92175 3.58566 39.548 0.151737 -1.87903 -0.918034 
851 2 9 5.77123 3.2927 38.6987 -0.126545 -2.14234 1.45097 
852 2 9 6.37191 3.61398 39.531 1.1495 -1.43816 -0.853744 
546 2 6 1.26123 6.79056 38.3591 -1.56336 3.40885 2.50551 
547 2 6 1.25192 6.67774 39.3066 -0.0216209 -1.48994 -2.99334 
348 2 4 9.50505 6.16355 39.0872 0.827703 0.184908 1.07043 
347 2 4 9.07322 6.09258 38.296 3.11296 0.257174 -0.366522 
43 2 1 6.01284 8.45567 38.5769 -2.6471 -0.753549 -1.41939 
44 2 1 6.59223 8.47722 39.3644 -0.90151 0.764443 -0.38089 
652 2 7 -0.10206 -0.789193 40.3796 0.22358 0.929993 -1.70804 
653 2 7 0.163747 -0.94469 41.283 -2.43167 0.7256 0.712655 
750 2 8 3.73971 -0.0574596 40.1908 0.325164 1.14091 1.50933 
751 2 8 4.04385 -0.470904 41.0208 -1.09675 -0.559253 2.97509 
752 2 8 4.71468 -0.440557 41.7795 0.490717 -1.93983 -1.96172 
146 2 2 7.81695 -0.0176662 40.1002 -0.757557 -0.148465 1.33985 
147 2 2 7.94343 0.0556727 41.0785 2.82976 -0.869974 -0.913695 
246 2 3 -1.17669 2.78065 40.0011 1.75278 -0.796693 1.58722 
247 2 3 -1.38492 2.56671 40.9024 -2.37123 1.29369 -2.80808 
248 2 3 -1.22533 2.44589 41.8675 -3.35466 1.66749 -0.541755 