ITEM: TIMESTEP
0
ITEM: NUMBER OF ATOMS
1
ITEM: BOX BOUNDS pp pp pp
-2.0000000000000000e+00 1.0000000000000000e+01
-2.0000000000000000e+00 1.0000000000000000e+01
0.0000000000000000e+00 3.0000000000000000e+02
ITEM: ATOMS id type mol xu yu zu vx vy vz 
1045 3 12 9.49631 2.15552 1.35754 0 0 0 
ITEM: TIMESTEP
100
ITEM: NUMBER OF ATOMS
1
ITEM: BOX BOUNDS pp pp pp
-2.0000000000000000e+00 1.0000000000000000e+01
-2.0000000000000000e+00 1.0000000000000000e+01
0.0000000000000000e+00 3.0000000000000000e+02
ITEM: ATOMS id type mol xu yu zu vx vy vz 
1045 3 12 9.49492 2.15547 1.35324 -0.230029 -0.00426775 -0.250353 
ITEM: TIMESTEP
200
ITEM: NUMBER OF ATOMS
1
ITEM: BOX BOUNDS pp pp pp
-2.0000000000000000e+00 1.0000000000000000e+01
-2.0000000000000000e+00 1.0000000000000000e+01
0.0000000000000000e+00 3.0000000000000000e+02
ITEM: ATOMS id type mol xu yu zu vx vy vz 
1045 3 12 9.48944 2.14835 1.34631 -0.0109882 -0.184331 0.0409691 
ITEM: TIMESTEP
300
ITEM: NUMBER OF ATOMS
1
ITEM: BOX BOUNDS pp pp pp
-2.0000000000000000e+00 1.0000000000000000e+01
-2.0000000000000000e+00 1.0000000000000000e+01
0.0000000000000000e+00 3.0000000000000000e+02
ITEM: ATOMS id type mol xu yu zu vx vy vz 
1045 3 12 9.48693 2.13933 1.34963 -0.0972451 -0.137404 -0.0191486 
ITEM: TIMESTEP
400
ITEM: NUMBER OF ATOMS
1
ITEM: BOX BOUNDS pp pp pp
-2.0000000000000000e+00 1.0000000000000000e+01
-2.0000000000000000e+00 1.0000000000000000e+01
0.0000000000000000e+00 3.0000000000000000e+02
ITEM: ATOMS id type mol xu yu zu vx vy vz 
1045 3 12 9.48068 2.13967 1.34643 -0.325813 0.151005 -0.136281 
ITEM: TIMESTEP
500
ITEM: NUMBER OF ATOMS
1
ITEM: BOX BOUNDS pp pp pp
-2.0000000000000000e+00 1.0000000000000000e+01
-2.0000000000000000e+00 1.0000000000000000e+01
0.0000000000000000e+00 3.0000000000000000e+02
ITEM: ATOMS id type mol xu yu zu vx vy vz 
1045 3 12 9.4594 2.14675 1.33348 -0.421962 0.147486 -0.155819 
ITEM: TIMESTEP
600
ITEM: NUMBER OF ATOMS
1
ITEM: BOX BOUNDS pp pp pp
-2.0000000000000000e+00 1.0000000000000000e+01
-2.0000000000000000e+00 1.0000000000000000e+01
0.0000000000000000e+00 3.0000000000000000e+02
ITEM: ATOMS id type mol xu yu zu vx vy vz 
1045 3 12 9.44165 2.15561 1.32995 -0.248625 0.272554 0.0532452 
ITEM: TIMESTEP
700
ITEM: NUMBER OF ATOMS
1
ITEM: BOX BOUNDS pp pp pp
-2.0000000000000000e+00 1.0000000000000000e+01
-2.0000000000000000e+00 1.0000000000000000e+01
0.0000000000000000e+00 3.0000000000000000e+02
ITEM: ATOMS id type mol xu yu zu vx vy vz 
1045 3 12 9.42997 2.17058 1.33068 -0.162382 0.320065 -0.101456 
ITEM: TIMESTEP
800
ITEM: NUMBER OF ATOMS
1
ITEM: BOX BOUNDS pp pp pp
-2.0000000000000000e+00 1.0000000000000000e+01
-2.0000000000000000e+00 1.0000000000000000e+01
0.0000000000000000e+00 3.0000000000000000e+02
ITEM: ATOMS id type mol xu yu zu vx vy vz 
1045 3 12 9.42613 2.18046 1.33908 -0.057367 0.259091 0.344229 
ITEM: TIMESTEP
900
ITEM: NUMBER OF ATOMS
1
ITEM: BOX BOUNDS pp pp pp
-2.0000000000000000e+00 1.0000000000000000e+01
-2.0000000000000000e+00 1.0000000000000000e+01
0.0000000000000000e+00 3.0000000000000000e+02
ITEM: ATOMS id type mol xu yu zu vx vy vz 
1045 3 12 9.42611 2.19322 1.35255 0.0756514 0.247584 0.316201 
ITEM: TIMESTEP
1000
ITEM: NUMBER OF ATOMS
1
ITEM: BOX BOUNDS pp pp pp
-2.0000000000000000e+00 1.0000000000000000e+01
-2.0000000000000000e+00 1.0000000000000000e+01
0.0000000000000000e+00 3.0000000000000000e+02
ITEM: ATOMS id type mol xu yu zu vx vy vz 
1045 3 12 9.43017 2.20851 1.36757 0.0972109 0.45693 0.365655 
ITEM: TIMESTEP
1100
ITEM: NUMBER OF ATOMS
1
ITEM: BOX BOUNDS pp pp pp
-2.0000000000000000e+00 1.0000000000000000e+01
-2.0000000000000000e+00 1.0000000000000000e+01
0.0000000000000000e+00 3.0000000000000000e+02
ITEM: ATOMS id type mol xu yu zu vx vy vz 
1045 3 12 9.4367 2.22689 1.37874 0.145549 0.403269 0.0935079 
ITEM: TIMESTEP
1200
ITEM: NUMBER OF ATOMS
1
ITEM: BOX BOUNDS pp pp pp
-2.0000000000000000e+00 1.0000000000000000e+01
-2.0000000000000000e+00 1.0000000000000000e+01
0.0000000000000000e+00 3.0000000000000000e+02
ITEM: ATOMS id type mol xu yu zu vx vy vz 
1045 3 12 9.44414 2.25215 1.38389 0.354436 0.524687 0.0822944 
ITEM: TIMESTEP
1300
ITEM: NUMBER OF ATOMS
1
ITEM: BOX BOUNDS pp pp pp
-2.0000000000000000e+00 1.0000000000000000e+01
-2.0000000000000000e+00 1.0000000000000000e+01
0.0000000000000000e+00 3.0000000000000000e+02
ITEM: ATOMS id type mol xu yu zu vx vy vz 
1045 3 12 9.46028 2.27075 1.38764 0.385543 0.338943 0.0442921 
ITEM: TIMESTEP
1400
ITEM: NUMBER OF ATOMS
1
ITEM: BOX BOUNDS pp pp pp
-2.0000000000000000e+00 1.0000000000000000e+01
-2.0000000000000000e+00 1.0000000000000000e+01
0.0000000000000000e+00 3.0000000000000000e+02
ITEM: ATOMS id type mol xu yu zu vx vy vz 
1045 3 12 9.47111 2.29065 1.39677 0.131764 0.49897 0.285686 
ITEM: TIMESTEP
1500
ITEM: NUMBER OF ATOMS
1
ITEM: BOX BOUNDS pp pp pp
-2.0000000000000000e+00 1.0000000000000000e+01
-2.0000000000000000e+00 1.0000000000000000e+01
0.0000000000000000e+00 3.0000000000000000e+02
ITEM: ATOMS id type mol xu yu zu vx vy vz 
1045 3 12 9.47913 2.31599 1.40882 0.153149 0.541501 0.343085 
ITEM: TIMESTEP
1600
ITEM: NUMBER OF ATOMS
1
ITEM: BOX BOUNDS pp pp pp
-2.0000000000000000e+00 1.0000000000000000e+01
-2.0000000000000000e+00 1.0000000000000000e+01
0.0000000000000000e+00 3.0000000000000000e+02
ITEM: ATOMS id type mol xu yu zu vx vy vz 
1045 3 12 9.48316 2.33685 1.42279 -0.0237106 0.287274 0.246006 
ITEM: TIMESTEP
1700
ITEM: NUMBER OF ATOMS
1
ITEM: BOX BOUNDS pp pp pp
-2.0000000000000000e+00 1.0000000000000000e+01
-2.0000000000000000e+00 1.0000000000000000e+01
0.0000000000000000e+00 3.0000000000000000e+02
ITEM: ATOMS id type mol xu yu zu vx vy vz 
1045 3 12 9.49523 2.35353 1.42809 0.411336 0.397075 0.142718 
ITEM: TIMESTEP
1800
ITEM: NUMBER OF ATOMS
1
ITEM: BOX BOUNDS pp pp pp
-2.0000000000000000e+00 1.0000000000000000e+01
-2.0000000000000000e+00 1.0000000000000000e+01
0.0000000000000000e+00 3.0000000000000000e+02
ITEM: ATOMS id type mol xu yu zu vx vy vz 
1045 3 12 9.5126 2.36868 1.42841 0.41721 0.47845 -0.109904 
ITEM: TIMESTEP
1900
ITEM: NUMBER OF ATOMS
1
ITEM: BOX BOUNDS pp pp pp
-2.0000000000000000e+00 1.0000000000000000e+01
-2.0000000000000000e+00 1.0000000000000000e+01
0.0000000000000000e+00 3.0000000000000000e+02
ITEM: ATOMS id type mol xu yu zu vx vy vz 
1045 3 12 9.53139 2.38448 1.42779 0.280197 0.257674 0.0932347 
ITEM: TIMESTEP
2000
ITEM: NUMBER OF ATOMS
1
ITEM: BOX BOUNDS pp pp pp
-2.0000000000000000e+00 1.0000000000000000e+01
-2.0000000000000000e+00 1.0000000000000000e+01
0.0000000000000000e+00 3.0000000000000000e+02
ITEM: ATOMS id type mol xu yu zu vx vy vz 
1045 3 12 9.54491 2.39248 1.43406 0.201408 0.162105 0.0939609 
ITEM: TIMESTEP
2100
ITEM: NUMBER OF ATOMS
1
ITEM: BOX BOUNDS pp pp pp
-2.0000000000000000e+00 1.0000000000000000e+01
-2.0000000000000000e+00 1.0000000000000000e+01
0.0000000000000000e+00 3.0000000000000000e+02
ITEM: ATOMS id type mol xu yu zu vx vy vz 
1045 3 12 9.5618 2.40111 1.43493 0.572179 0.17275 0.0301483 
ITEM: TIMESTEP
2200
ITEM: NUMBER OF ATOMS
1
ITEM: BOX BOUNDS pp pp pp
-2.0000000000000000e+00 1.0000000000000000e+01
-2.0000000000000000e+00 1.0000000000000000e+01
0.0000000000000000e+00 3.0000000000000000e+02
ITEM: ATOMS id type mol xu yu zu vx vy vz 
1045 3 12 9.58568 2.40642 1.44563 0.532588 0.106315 0.344314 
ITEM: TIMESTEP
2300
ITEM: NUMBER OF ATOMS
1
ITEM: BOX BOUNDS pp pp pp
-2.0000000000000000e+00 1.0000000000000000e+01
-2.0000000000000000e+00 1.0000000000000000e+01
0.0000000000000000e+00 3.0000000000000000e+02
ITEM: ATOMS id type mol xu yu zu vx vy vz 
1045 3 12 9.61012 2.41302 1.46374 0.452469 0.248101 0.477472 
ITEM: TIMESTEP
2400
ITEM: NUMBER OF ATOMS
1
ITEM: BOX BOUNDS pp pp pp
-2.0000000000000000e+00 1.0000000000000000e+01
-2.0000000000000000e+00 1.0000000000000000e+01
0.0000000000000000e+00 3.0000000000000000e+02
ITEM: ATOMS id type mol xu yu zu vx vy vz 
1045 3 12 9.63013 2.42642 1.49568 0.600079 0.423446 0.713813 
ITEM: TIMESTEP
2500
ITEM: NUMBER OF ATOMS
1
ITEM: BOX BOUNDS pp pp pp
-2.0000000000000000e+00 1.0000000000000000e+01
-2.0000000000000000e+00 1.0000000000000000e+01
0.0000000000000000e+00 3.0000000000000000e+02
ITEM: ATOMS id type mol xu yu zu vx vy vz 
1045 3 12 9.65808 2.44873 1.52611 0.64546 0.519704 0.684032 
ITEM: TIMESTEP
2600
ITEM: NUMBER OF ATOMS
1
ITEM: BOX BOUNDS pp pp pp
-2.0000000000000000e+00 1.0000000000000000e+01
-2.0000000000000000e+00 1.0000000000000000e+01
0.0000000000000000e+00 3.0000000000000000e+02
ITEM: ATOMS id type mol xu yu zu vx vy vz 
1045 3 12 9.69656 2.47587 1.55428 0.944234 0.709812 0.637159 
ITEM: TIMESTEP
2700
ITEM: NUMBER OF ATOMS
1
ITEM: BOX BOUNDS pp pp pp
-2.0000000000000000e+00 1.0000000000000000e+01
-2.0000000000000000e+00 1.0000000000000000e+01
0.0000000000000000e+00 3.0000000000000000e+02
ITEM: ATOMS id type mol xu yu zu vx vy vz 
1045 3 12 9.74506 2.5108 1.5865 1.16863 0.748056 0.765809 
ITEM: TIMESTEP
2800
ITEM: NUMBER OF ATOMS
1
ITEM: BOX BOUNDS pp pp pp
-2.0000000000000000e+00 1.0000000000000000e+01
-2.0000000000000000e+00 1.0000000000000000e+01
0.0000000000000000e+00 3.0000000000000000e+02
ITEM: ATOMS id type mol xu yu zu vx vy vz 
1045 3 12 9.79352 2.53674 1.62418 1.13656 0.531779 0.964494 
ITEM: TIMESTEP
2900
ITEM: NUMBER OF ATOMS
1
ITEM: BOX BOUNDS pp pp pp
-2.0000000000000000e+00 1.0000000000000000e+01
-2.0000000000000000e+00 1.0000000000000000e+01
0.0000000000000000e+00 3.0000000000000000e+02
ITEM: ATOMS id type mol xu yu zu vx vy vz 
1045 3 12 9.84509 2.5574 1.67255 1.2219 0.556714 1.22419 
ITEM: TIMESTEP
3000
ITEM: NUMBER OF ATOMS
1
ITEM: BOX BOUNDS pp pp pp
-2.0000000000000000e+00 1.0000000000000000e+01
-2.0000000000000000e+00 1.0000000000000000e+01
0.0000000000000000e+00 3.0000000000000000e+02
ITEM: ATOMS id type mol xu yu zu vx vy vz 
1045 3 12 9.89598 2.58835 1.73254 1.13522 0.728435 1.44424 
ITEM: TIMESTEP
3100
ITEM: NUMBER OF ATOMS
1
ITEM: BOX BOUNDS pp pp pp
-2.0000000000000000e+00 1.0000000000000000e+01
-2.0000000000000000e+00 1.0000000000000000e+01
0.0000000000000000e+00 3.0000000000000000e+02
ITEM: ATOMS id type mol xu yu zu vx vy vz 
1045 3 12 9.93821 2.61708 1.79542 0.93197 0.577404 1.37206 
ITEM: TIMESTEP
3200
ITEM: NUMBER OF ATOMS
1
ITEM: BOX BOUNDS pp pp pp
-2.0000000000000000e+00 1.0000000000000000e+01
-2.0000000000000000e+00 1.0000000000000000e+01
0.0000000000000000e+00 3.0000000000000000e+02
ITEM: ATOMS id type mol xu yu zu vx vy vz 
1045 3 12 9.9864 2.63994 1.85645 1.09606 0.592483 1.37777 
ITEM: TIMESTEP
3300
ITEM: NUMBER OF ATOMS
1
ITEM: BOX BOUNDS pp pp pp
-2.0000000000000000e+00 1.0000000000000000e+01
-2.0000000000000000e+00 1.0000000000000000e+01
0.0000000000000000e+00 3.0000000000000000e+02
ITEM: ATOMS id type mol xu yu zu vx vy vz 
1045 3 12 10.0377 2.67246 1.91847 1.22374 0.840324 1.2257 
ITEM: TIMESTEP
3400
ITEM: NUMBER OF ATOMS
1
ITEM: BOX BOUNDS pp pp pp
-2.0000000000000000e+00 1.0000000000000000e+01
-2.0000000000000000e+00 1.0000000000000000e+01
0.0000000000000000e+00 3.0000000000000000e+02
ITEM: ATOMS id type mol xu yu zu vx vy vz 
1045 3 12 10.0855 2.70702 1.97896 0.997844 0.796487 1.19956 
ITEM: TIMESTEP
3500
ITEM: NUMBER OF ATOMS
1
ITEM: BOX BOUNDS pp pp pp
-2.0000000000000000e+00 1.0000000000000000e+01
-2.0000000000000000e+00 1.0000000000000000e+01
0.0000000000000000e+00 3.0000000000000000e+02
ITEM: ATOMS id type mol xu yu zu vx vy vz 
1045 3 12 10.1331 2.74961 2.02803 1.1606 1.02618 1.03172 
ITEM: TIMESTEP
3600
ITEM: NUMBER OF ATOMS
1
ITEM: BOX BOUNDS pp pp pp
-2.0000000000000000e+00 1.0000000000000000e+01
-2.0000000000000000e+00 1.0000000000000000e+01
0.0000000000000000e+00 3.0000000000000000e+02
ITEM: ATOMS id type mol xu yu zu vx vy vz 
1045 3 12 10.1902 2.79577 2.07393 1.2233 1.04354 1.03224 
ITEM: TIMESTEP
3700
ITEM: NUMBER OF ATOMS
1
ITEM: BOX BOUNDS pp pp pp
-2.0000000000000000e+00 1.0000000000000000e+01
-2.0000000000000000e+00 1.0000000000000000e+01
0.0000000000000000e+00 3.0000000000000000e+02
ITEM: ATOMS id type mol xu yu zu vx vy vz 
1045 3 12 10.2461 2.84361 2.12013 1.05156 1.00627 1.01464 
ITEM: TIMESTEP
3800
ITEM: NUMBER OF ATOMS
1
ITEM: BOX BOUNDS pp pp pp
-2.0000000000000000e+00 1.0000000000000000e+01
-2.0000000000000000e+00 1.0000000000000000e+01
0.0000000000000000e+00 3.0000000000000000e+02
ITEM: ATOMS id type mol xu yu zu vx vy vz 
1045 3 12 10.293 2.88819 2.16631 1.10696 0.94867 1.02794 
ITEM: TIMESTEP
3900
ITEM: NUMBER OF ATOMS
1
ITEM: BOX BOUNDS pp pp pp
-2.0000000000000000e+00 1.0000000000000000e+01
-2.0000000000000000e+00 1.0000000000000000e+01
0.0000000000000000e+00 3.0000000000000000e+02
ITEM: ATOMS id type mol xu yu zu vx vy vz 
1045 3 12 10.347 2.92911 2.21761 1.29464 0.986156 1.27069 
ITEM: TIMESTEP
4000
ITEM: NUMBER OF ATOMS
1
ITEM: BOX BOUNDS pp pp pp
-2.0000000000000000e+00 1.0000000000000000e+01
-2.0000000000000000e+00 1.0000000000000000e+01
0.0000000000000000e+00 3.0000000000000000e+02
ITEM: ATOMS id type mol xu yu zu vx vy vz 
1045 3 12 10.4045 2.97621 2.2774 1.14533 1.18101 1.44948 
ITEM: TIMESTEP
4100
ITEM: NUMBER OF ATOMS
1
ITEM: BOX BOUNDS pp pp pp
-2.0000000000000000e+00 1.0000000000000000e+01
-2.0000000000000000e+00 1.0000000000000000e+01
0.0000000000000000e+00 3.0000000000000000e+02
ITEM: ATOMS id type mol xu yu zu vx vy vz 
1045 3 12 10.4593 3.03297 2.33992 1.20419 1.40814 1.30015 
ITEM: TIMESTEP
4200
ITEM: NUMBER OF ATOMS
1
ITEM: BOX BOUNDS pp pp pp
-2.0000000000000000e+00 1.0000000000000000e+01
-2.0000000000000000e+00 1.0000000000000000e+01
0.0000000000000000e+00 3.0000000000000000e+02
ITEM: ATOMS id type mol xu yu zu vx vy vz 
1045 3 12 10.517 3.09971 2.399 1.34808 1.46713 1.35416 
ITEM: TIMESTEP
4300
ITEM: NUMBER OF ATOMS
1
ITEM: BOX BOUNDS pp pp pp
-2.0000000000000000e+00 1.0000000000000000e+01
-2.0000000000000000e+00 1.0000000000000000e+01
0.0000000000000000e+00 3.0000000000000000e+02
ITEM: ATOMS id type mol xu yu zu vx vy vz 
1045 3 12 10.5822 3.16184 2.46166 1.55689 1.32904 1.44755 
ITEM: TIMESTEP
4400
ITEM: NUMBER OF ATOMS
1
ITEM: BOX BOUNDS pp pp pp
-2.0000000000000000e+00 1.0000000000000000e+01
-2.0000000000000000e+00 1.0000000000000000e+01
0.0000000000000000e+00 3.0000000000000000e+02
ITEM: ATOMS id type mol xu yu zu vx vy vz 
1045 3 12 10.6484 3.22005 2.52426 1.48337 1.26371 1.38517 
ITEM: TIMESTEP
4500
ITEM: NUMBER OF ATOMS
1
ITEM: BOX BOUNDS pp pp pp
-2.0000000000000000e+00 1.0000000000000000e+01
-2.0000000000000000e+00 1.0000000000000000e+01
0.0000000000000000e+00 3.0000000000000000e+02
ITEM: ATOMS id type mol xu yu zu vx vy vz 
1045 3 12 10.7115 3.27112 2.5868 1.39085 1.19948 1.3481 
ITEM: TIMESTEP
4600
ITEM: NUMBER OF ATOMS
1
ITEM: BOX BOUNDS pp pp pp
-2.0000000000000000e+00 1.0000000000000000e+01
-2.0000000000000000e+00 1.0000000000000000e+01
0.0000000000000000e+00 3.0000000000000000e+02
ITEM: ATOMS id type mol xu yu zu vx vy vz 
1045 3 12 10.7739 3.32676 2.6439 1.48973 1.33833 1.13737 
ITEM: TIMESTEP
4700
ITEM: NUMBER OF ATOMS
1
ITEM: BOX BOUNDS pp pp pp
-2.0000000000000000e+00 1.0000000000000000e+01
-2.0000000000000000e+00 1.0000000000000000e+01
0.0000000000000000e+00 3.0000000000000000e+02
ITEM: ATOMS id type mol xu yu zu vx vy vz 
1045 3 12 10.8393 3.38325 2.69645 1.15675 1.04215 1.1006 
ITEM: TIMESTEP
4800
ITEM: NUMBER OF ATOMS
1
ITEM: BOX BOUNDS pp pp pp
-2.0000000000000000e+00 1.0000000000000000e+01
-2.0000000000000000e+00 1.0000000000000000e+01
0.0000000000000000e+00 3.0000000000000000e+02
ITEM: ATOMS id type mol xu yu zu vx vy vz 
1045 3 12 10.8715 3.40896 2.73105 -0.0419229 -0.176873 0.287217 
ITEM: TIMESTEP
4900
ITEM: NUMBER OF ATOMS
1
ITEM: BOX BOUNDS pp pp pp
-2.0000000000000000e+00 1.0000000000000000e+01
-2.0000000000000000e+00 1.0000000000000000e+01
0.0000000000000000e+00 3.0000000000000000e+02
ITEM: ATOMS id type mol xu yu zu vx vy vz 
1045 3 12 10.8445 3.37193 2.72284 -1.05177 -1.35542 -0.454455 
ITEM: TIMESTEP
5000
ITEM: NUMBER OF ATOMS
1
ITEM: BOX BOUNDS pp pp pp
-2.0000000000000000e+00 1.0000000000000000e+01
-2.0000000000000000e+00 1.0000000000000000e+01
0.0000000000000000e+00 3.0000000000000000e+02
ITEM: ATOMS id type mol xu yu zu vx vy vz 
1045 3 12 10.7971 3.30365 2.70485 -1.06035 -1.47845 -0.285298 
ITEM: TIMESTEP
5100
ITEM: NUMBER OF ATOMS
1
ITEM: BOX BOUNDS pp pp pp
-2.0000000000000000e+00 1.0000000000000000e+01
-2.0000000000000000e+00 1.0000000000000000e+01
0.0000000000000000e+00 3.0000000000000000e+02
ITEM: ATOMS id type mol xu yu zu vx vy vz 
1045 3 12 10.745 3.23291 2.69141 -1.31678 -1.55039 -0.296723 
ITEM: TIMESTEP
5200
ITEM: NUMBER OF ATOMS
1
ITEM: BOX BOUNDS pp pp pp
-2.0000000000000000e+00 1.0000000000000000e+01
-2.0000000000000000e+00 1.0000000000000000e+01
0.0000000000000000e+00 3.0000000000000000e+02
ITEM: ATOMS id type mol xu yu zu vx vy vz 
1045 3 12 10.6863 3.15957 2.67834 -1.29706 -1.63212 -0.110214 
ITEM: TIMESTEP
5300
ITEM: NUMBER OF ATOMS
1
ITEM: BOX BOUNDS pp pp pp
-2.0000000000000000e+00 1.0000000000000000e+01
-2.0000000000000000e+00 1.0000000000000000e+01
0.0000000000000000e+00 3.0000000000000000e+02
ITEM: ATOMS id type mol xu yu zu vx vy vz 
1045 3 12 10.6295 3.07757 2.67597 -1.31984 -1.90518 -0.0685098 
ITEM: TIMESTEP
5400
ITEM: NUMBER OF ATOMS
1
ITEM: BOX BOUNDS pp pp pp
-2.0000000000000000e+00 1.0000000000000000e+01
-2.0000000000000000e+00 1.0000000000000000e+01
0.0000000000000000e+00 3.0000000000000000e+02
ITEM: ATOMS id type mol xu yu zu vx vy vz 
1045 3 12 10.5649 2.98994 2.67097 -1.5326 -1.95087 -0.0861395 
ITEM: TIMESTEP
5500
ITEM: NUMBER OF ATOMS
1
ITEM: BOX BOUNDS pp pp pp
-2.0000000000000000e+00 1.0000000000000000e+01
-2.0000000000000000e+00 1.0000000000000000e+01
0.0000000000000000e+00 3.0000000000000000e+02
ITEM: ATOMS id type mol xu yu zu vx vy vz 
1045 3 12 10.4914 2.89773 2.66933 -1.70645 -2.12725 0.0729631 
ITEM: TIMESTEP
5600
ITEM: NUMBER OF ATOMS
1
ITEM: BOX BOUNDS pp pp pp
-2.0000000000000000e+00 1.0000000000000000e+01
-2.0000000000000000e+00 1.0000000000000000e+01
0.0000000000000000e+00 3.0000000000000000e+02
ITEM: ATOMS id type mol xu yu zu vx vy vz 
1045 3 12 10.4106 2.80438 2.67557 -1.84059 -1.99951 0.180173 
ITEM: TIMESTEP
5700
ITEM: NUMBER OF ATOMS
1
ITEM: BOX BOUNDS pp pp pp
-2.0000000000000000e+00 1.0000000000000000e+01
-2.0000000000000000e+00 1.0000000000000000e+01
0.0000000000000000e+00 3.0000000000000000e+02
ITEM: ATOMS id type mol xu yu zu vx vy vz 
1045 3 12 10.3245 2.71396 2.68024 -1.98626 -2.1571 -0.0362454 
ITEM: TIMESTEP
5800
ITEM: NUMBER OF ATOMS
1
ITEM: BOX BOUNDS pp pp pp
-2.0000000000000000e+00 1.0000000000000000e+01
-2.0000000000000000e+00 1.0000000000000000e+01
0.0000000000000000e+00 3.0000000000000000e+02
ITEM: ATOMS id type mol xu yu zu vx vy vz 
1045 3 12 10.2338 2.62624 2.6788 -2.0496 -1.83088 -0.0742765 
ITEM: TIMESTEP
5900
ITEM: NUMBER OF ATOMS
1
ITEM: BOX BOUNDS pp pp pp
-2.0000000000000000e+00 1.0000000000000000e+01
-2.0000000000000000e+00 1.0000000000000000e+01
0.0000000000000000e+00 3.0000000000000000e+02
ITEM: ATOMS id type mol xu yu zu vx vy vz 
1045 3 12 10.143 2.5479 2.67603 -2.04583 -1.76328 -0.0568757 
ITEM: TIMESTEP
6000
ITEM: NUMBER OF ATOMS
1
ITEM: BOX BOUNDS pp pp pp
-2.0000000000000000e+00 1.0000000000000000e+01
-2.0000000000000000e+00 1.0000000000000000e+01
0.0000000000000000e+00 3.0000000000000000e+02
ITEM: ATOMS id type mol xu yu zu vx vy vz 
1045 3 12 10.055 2.47416 2.67411 -1.78469 -1.5267 0.0910624 
ITEM: TIMESTEP
6100
ITEM: NUMBER OF ATOMS
1
ITEM: BOX BOUNDS pp pp pp
-2.0000000000000000e+00 1.0000000000000000e+01
-2.0000000000000000e+00 1.0000000000000000e+01
0.0000000000000000e+00 3.0000000000000000e+02
ITEM: ATOMS id type mol xu yu zu vx vy vz 
1045 3 12 9.96866 2.40534 2.66904 -2.06629 -1.59161 -0.378526 
ITEM: TIMESTEP
6200
ITEM: NUMBER OF ATOMS
1
ITEM: BOX BOUNDS pp pp pp
-2.0000000000000000e+00 1.0000000000000000e+01
-2.0000000000000000e+00 1.0000000000000000e+01
0.0000000000000000e+00 3.0000000000000000e+02
ITEM: ATOMS id type mol xu yu zu vx vy vz 
1045 3 12 9.88357 2.33846 2.64662 -1.64997 -1.39112 -0.730618 
ITEM: TIMESTEP
6300
ITEM: NUMBER OF ATOMS
1
ITEM: BOX BOUNDS pp pp pp
-2.0000000000000000e+00 1.0000000000000000e+01
-2.0000000000000000e+00 1.0000000000000000e+01
0.0000000000000000e+00 3.0000000000000000e+02
ITEM: ATOMS id type mol xu yu zu vx vy vz 
1045 3 12 9.80753 2.27726 2.61923 -1.68513 -1.43112 -0.411601 
ITEM: TIMESTEP
6400
ITEM: NUMBER OF ATOMS
1
ITEM: BOX BOUNDS pp pp pp
-2.0000000000000000e+00 1.0000000000000000e+01
-2.0000000000000000e+00 1.0000000000000000e+01
0.0000000000000000e+00 3.0000000000000000e+02
ITEM: ATOMS id type mol xu yu zu vx vy vz 
1045 3 12 9.72532 2.21475 2.59993 -1.97578 -1.48167 -0.431471 
ITEM: TIMESTEP
6500
ITEM: NUMBER OF ATOMS
1
ITEM: BOX BOUNDS pp pp pp
-2.0000000000000000e+00 1.0000000000000000e+01
-2.0000000000000000e+00 1.0000000000000000e+01
0.0000000000000000e+00 3.0000000000000000e+02
ITEM: ATOMS id type mol xu yu zu vx vy vz 
1045 3 12 9.62808 2.14138 2.5828 -2.24207 -1.78814 -0.217609 
ITEM: TIMESTEP
6600
ITEM: NUMBER OF ATOMS
1
ITEM: BOX BOUNDS pp pp pp
-2.0000000000000000e+00 1.0000000000000000e+01
-2.0000000000000000e+00 1.0000000000000000e+01
0.0000000000000000e+00 3.0000000000000000e+02
ITEM: ATOMS id type mol xu yu zu vx vy vz 
1045 3 12 9.52814 2.05711 2.56774 -2.09184 -1.97906 -0.347815 
ITEM: TIMESTEP
6700
ITEM: NUMBER OF ATOMS
1
ITEM: BOX BOUNDS pp pp pp
-2.0000000000000000e+00 1.0000000000000000e+01
-2.0000000000000000e+00 1.0000000000000000e+01
0.0000000000000000e+00 3.0000000000000000e+02
ITEM: ATOMS id type mol xu yu zu vx vy vz 
1045 3 12 9.43638 1.96089 2.54998 -2.16339 -2.17393 -0.452834 
ITEM: TIMESTEP
6800
ITEM: NUMBER OF ATOMS
1
ITEM: BOX BOUNDS pp pp pp
-2.0000000000000000e+00 1.0000000000000000e+01
-2.0000000000000000e+00 1.0000000000000000e+01
0.0000000000000000e+00 3.0000000000000000e+02
ITEM: ATOMS id type mol xu yu zu vx vy vz 
1045 3 12 9.33741 1.86719 2.52412 -2.2223 -2.00591 -0.776633 
ITEM: TIMESTEP
6900
ITEM: NUMBER OF ATOMS
1
ITEM: BOX BOUNDS pp pp pp
-2.0000000000000000e+00 1.0000000000000000e+01
-2.0000000000000000e+00 1.0000000000000000e+01
0.0000000000000000e+00 3.0000000000000000e+02
ITEM: ATOMS id type mol xu yu zu vx vy vz 
1045 3 12 9.24276 1.77719 2.49063 -2.1852 -1.94644 -0.833413 
ITEM: TIMESTEP
7000
ITEM: NUMBER OF ATOMS
1
ITEM: BOX BOUNDS pp pp pp
-2.0000000000000000e+00 1.0000000000000000e+01
-2.0000000000000000e+00 1.0000000000000000e+01
0.0000000000000000e+00 3.0000000000000000e+02
ITEM: ATOMS id type mol xu yu zu vx vy vz 
1045 3 12 9.1474 1.68546 2.4513 -2.09403 -2.12389 -0.924753 
ITEM: TIMESTEP
7100
ITEM: NUMBER OF ATOMS
1
ITEM: BOX BOUNDS pp pp pp
-2.0000000000000000e+00 1.0000000000000000e+01
-2.0000000000000000e+00 1.0000000000000000e+01
0.0000000000000000e+00 3.0000000000000000e+02
ITEM: ATOMS id type mol xu yu zu vx vy vz 
1045 3 12 9.05374 1.5894 2.40925 -2.06704 -2.16989 -0.916237 
ITEM: TIMESTEP
7200
ITEM: NUMBER OF ATOMS
1
ITEM: BOX BOUNDS pp pp pp
-2.0000000000000000e+00 1.0000000000000000e+01
-2.0000000000000000e+00 1.0000000000000000e+01
0.0000000000000000e+00 3.0000000000000000e+02
ITEM: ATOMS id type mol xu yu zu vx vy vz 
1045 3 12 8.947 1.48963 2.36258 -2.49447 -2.20317 -0.981415 
ITEM: TIMESTEP
7300
ITEM: NUMBER OF ATOMS
1
ITEM: BOX BOUNDS pp pp pp
-2.0000000000000000e+00 1.0000000000000000e+01
-2.0000000000000000e+00 1.0000000000000000e+01
0.0000000000000000e+00 3.0000000000000000e+02
ITEM: ATOMS id type mol xu yu zu vx vy vz 
1045 3 12 8.83341 1.3872 2.3177 -2.61197 -2.16211 -1.07616 
ITEM: TIMESTEP
7400
ITEM: NUMBER OF ATOMS
1
ITEM: BOX BOUNDS pp pp pp
-2.0000000000000000e+00 1.0000000000000000e+01
-2.0000000000000000e+00 1.0000000000000000e+01
0.0000000000000000e+00 3.0000000000000000e+02
ITEM: ATOMS id type mol xu yu zu vx vy vz 
1045 3 12 8.71952 1.29157 2.27867 -2.55805 -2.12315 -0.801352 
ITEM: TIMESTEP
7500
ITEM: NUMBER OF ATOMS
1
ITEM: BOX BOUNDS pp pp pp
-2.0000000000000000e+00 1.0000000000000000e+01
-2.0000000000000000e+00 1.0000000000000000e+01
0.0000000000000000e+00 3.0000000000000000e+02
ITEM: ATOMS id type mol xu yu zu vx vy vz 
1045 3 12 8.6015 1.19756 2.242 -2.52535 -2.05265 -0.97199 
ITEM: TIMESTEP
7600
ITEM: NUMBER OF ATOMS
1
ITEM: BOX BOUNDS pp pp pp
-2.0000000000000000e+00 1.0000000000000000e+01
-2.0000000000000000e+00 1.0000000000000000e+01
0.0000000000000000e+00 3.0000000000000000e+02
ITEM: ATOMS id type mol xu yu zu vx vy vz 
1045 3 12 8.4824 1.10422 2.20019 -2.75285 -1.97168 -0.998608 
ITEM: TIMESTEP
7700
ITEM: NUMBER OF ATOMS
1
ITEM: BOX BOUNDS pp pp pp
-2.0000000000000000e+00 1.0000000000000000e+01
-2.0000000000000000e+00 1.0000000000000000e+01
0.0000000000000000e+00 3.0000000000000000e+02
ITEM: ATOMS id type mol xu yu zu vx vy vz 
1045 3 12 8.35973 1.02061 2.16148 -2.64891 -1.6713 -0.846347 
ITEM: TIMESTEP
7800
ITEM: NUMBER OF ATOMS
1
ITEM: BOX BOUNDS pp pp pp
-2.0000000000000000e+00 1.0000000000000000e+01
-2.0000000000000000e+00 1.0000000000000000e+01
0.0000000000000000e+00 3.0000000000000000e+02
ITEM: ATOMS id type mol xu yu zu vx vy vz 
1045 3 12 8.24237 0.944242 2.12118 -2.65092 -1.72428 -0.989009 
ITEM: TIMESTEP
7900
ITEM: NUMBER OF ATOMS
1
ITEM: BOX BOUNDS pp pp pp
-2.0000000000000000e+00 1.0000000000000000e+01
-2.0000000000000000e+00 1.0000000000000000e+01
0.0000000000000000e+00 3.0000000000000000e+02
ITEM: ATOMS id type mol xu yu zu vx vy vz 
1045 3 12 8.12374 0.870306 2.07894 -2.65188 -1.58057 -0.870875 
ITEM: TIMESTEP
8000
ITEM: NUMBER OF ATOMS
1
ITEM: BOX BOUNDS pp pp pp
-2.0000000000000000e+00 1.0000000000000000e+01
-2.0000000000000000e+00 1.0000000000000000e+01
0.0000000000000000e+00 3.0000000000000000e+02
ITEM: ATOMS id type mol xu yu zu vx vy vz 
1045 3 12 8.00169 0.802788 2.03596 -2.88054 -1.3117 -1.12332 
ITEM: TIMESTEP
8100
ITEM: NUMBER OF ATOMS
1
ITEM: BOX BOUNDS pp pp pp
-2.0000000000000000e+00 1.0000000000000000e+01
-2.0000000000000000e+00 1.0000000000000000e+01
0.0000000000000000e+00 3.0000000000000000e+02
ITEM: ATOMS id type mol xu yu zu vx vy vz 
1045 3 12 7.87337 0.745093 1.98043 -2.7013 -1.4129 -1.06487 
ITEM: TIMESTEP
8200
ITEM: NUMBER OF ATOMS
1
ITEM: BOX BOUNDS pp pp pp
-2.0000000000000000e+00 1.0000000000000000e+01
-2.0000000000000000e+00 1.0000000000000000e+01
0.0000000000000000e+00 3.0000000000000000e+02
ITEM: ATOMS id type mol xu yu zu vx vy vz 
1045 3 12 7.75892 0.679692 1.93206 -2.3705 -1.38575 -0.962982 
ITEM: TIMESTEP
8300
ITEM: NUMBER OF ATOMS
1
ITEM: BOX BOUNDS pp pp pp
-2.0000000000000000e+00 1.0000000000000000e+01
-2.0000000000000000e+00 1.0000000000000000e+01
0.0000000000000000e+00 3.0000000000000000e+02
ITEM: ATOMS id type mol xu yu zu vx vy vz 
1045 3 12 7.65701 0.652291 1.88033 -2.00568 0.224751 -1.22988 
ITEM: TIMESTEP
8400
ITEM: NUMBER OF ATOMS
1
ITEM: BOX BOUNDS pp pp pp
-2.0000000000000000e+00 1.0000000000000000e+01
-2.0000000000000000e+00 1.0000000000000000e+01
0.0000000000000000e+00 3.0000000000000000e+02
ITEM: ATOMS id type mol xu yu zu vx vy vz 
1045 3 12 7.56906 0.689909 1.81552 -1.86819 1.06574 -1.54538 
ITEM: TIMESTEP
8500
ITEM: NUMBER OF ATOMS
1
ITEM: BOX BOUNDS pp pp pp
-2.0000000000000000e+00 1.0000000000000000e+01
-2.0000000000000000e+00 1.0000000000000000e+01
0.0000000000000000e+00 3.0000000000000000e+02
ITEM: ATOMS id type mol xu yu zu vx vy vz 
1045 3 12 7.48484 0.739892 1.74954 -1.85225 1.08747 -1.40703 
ITEM: TIMESTEP
8600
ITEM: NUMBER OF ATOMS
1
ITEM: BOX BOUNDS pp pp pp
-2.0000000000000000e+00 1.0000000000000000e+01
-2.0000000000000000e+00 1.0000000000000000e+01
0.0000000000000000e+00 3.0000000000000000e+02
ITEM: ATOMS id type mol xu yu zu vx vy vz 
1045 3 12 7.40514 0.793653 1.69311 -1.78506 1.33441 -0.937988 
ITEM: TIMESTEP
8700
ITEM: NUMBER OF ATOMS
1
ITEM: BOX BOUNDS pp pp pp
-2.0000000000000000e+00 1.0000000000000000e+01
-2.0000000000000000e+00 1.0000000000000000e+01
0.0000000000000000e+00 3.0000000000000000e+02
ITEM: ATOMS id type mol xu yu zu vx vy vz 
1045 3 12 7.32884 0.854722 1.63961 -1.66598 1.49158 -1.38355 
ITEM: TIMESTEP
8800
ITEM: NUMBER OF ATOMS
1
ITEM: BOX BOUNDS pp pp pp
-2.0000000000000000e+00 1.0000000000000000e+01
-2.0000000000000000e+00 1.0000000000000000e+01
0.0000000000000000e+00 3.0000000000000000e+02
ITEM: ATOMS id type mol xu yu zu vx vy vz 
1045 3 12 7.25047 0.924689 1.57396 -1.83186 1.73189 -1.39346 
ITEM: TIMESTEP
8900
ITEM: NUMBER OF ATOMS
1
ITEM: BOX BOUNDS pp pp pp
-2.0000000000000000e+00 1.0000000000000000e+01
-2.0000000000000000e+00 1.0000000000000000e+01
0.0000000000000000e+00 3.0000000000000000e+02
ITEM: ATOMS id type mol xu yu zu vx vy vz 
1045 3 12 7.16658 0.995938 1.51112 -1.90199 1.37241 -1.47333 
ITEM: TIMESTEP
9000
ITEM: NUMBER OF ATOMS
1
ITEM: BOX BOUNDS pp pp pp
-2.0000000000000000e+00 1.0000000000000000e+01
-2.0000000000000000e+00 1.0000000000000000e+01
0.0000000000000000e+00 3.0000000000000000e+02
ITEM: ATOMS id type mol xu yu zu vx vy vz 
1045 3 12 7.07354 1.05227 1.43627 -2.21923 1.27146 -1.71199 
ITEM: TIMESTEP
9100
ITEM: NUMBER OF ATOMS
1
ITEM: BOX BOUNDS pp pp pp
-2.0000000000000000e+00 1.0000000000000000e+01
-2.0000000000000000e+00 1.0000000000000000e+01
0.0000000000000000e+00 3.0000000000000000e+02
ITEM: ATOMS id type mol xu yu zu vx vy vz 
1045 3 12 6.97426 1.10772 1.35745 -2.20302 1.1549 -1.80148 
ITEM: TIMESTEP
9200
ITEM: NUMBER OF ATOMS
1
ITEM: BOX BOUNDS pp pp pp
-2.0000000000000000e+00 1.0000000000000000e+01
-2.0000000000000000e+00 1.0000000000000000e+01
0.0000000000000000e+00 3.0000000000000000e+02
ITEM: ATOMS id type mol xu yu zu vx vy vz 
1045 3 12 6.87542 1.15396 1.27216 -2.26081 1.0105 -2.0277 
ITEM: TIMESTEP
9300
ITEM: NUMBER OF ATOMS
1
ITEM: BOX BOUNDS pp pp pp
-2.0000000000000000e+00 1.0000000000000000e+01
-2.0000000000000000e+00 1.0000000000000000e+01
0.0000000000000000e+00 3.0000000000000000e+02
ITEM: ATOMS id type mol xu yu zu vx vy vz 
1045 3 12 6.77751 1.20012 1.1787 -2.03508 1.19043 -2.00665 
ITEM: TIMESTEP
9400
ITEM: NUMBER OF ATOMS
1
ITEM: BOX BOUNDS pp pp pp
-2.0000000000000000e+00 1.0000000000000000e+01
-2.0000000000000000e+00 1.0000000000000000e+01
0.0000000000000000e+00 3.0000000000000000e+02
ITEM: ATOMS id type mol xu yu zu vx vy vz 
1045 3 12 6.67751 1.25077 1.08463 -2.35044 1.1717 -2.1004 
ITEM: TIMESTEP
9500
ITEM: NUMBER OF ATOMS
1
ITEM: BOX BOUNDS pp pp pp
-2.0000000000000000e+00 1.0000000000000000e+01