ITEM: TIMESTEP
0
ITEM: NUMBER OF ATOMS
1
ITEM: BOX BOUNDS pp pp pp
-2.0000000000000000e+00 1.0000000000000000e+01
-2.0000000000000000e+00 1.0000000000000000e+01
0.0000000000000000e+00 3.0000000000000000e+02
ITEM: ATOMS id type mol xu yu zu vx vy vz
1045 3 12 8.04258 3.9705 1.50868 0 0 0
ITEM: TIMESTEP
100
ITEM: NUMBER OF ATOMS
1
ITEM: BOX BOUNDS pp pp pp
-2.0000000000000000e+00 1.0000000000000000e+01
-2.0000000000000000e+00 1.0000000000000000e+01
0.0000000000000000e+00 3.0000000000000000e+02
ITEM: ATOMS id type mol xu yu zu vx vy vz
1045 3 12 12.3729 6.26083 6.60938 97.5065 50.1596 115.002
ITEM: TIMESTEP
200
ITEM: NUMBER OF ATOMS
1
ITEM: BOX BOUNDS pp pp pp
-2.0000000000000000e+00 1.0000000000000000e+01
-2.0000000000000000e+00 1.0000000000000000e+01
0.0000000000000000e+00 3.0000000000000000e+02
ITEM: ATOMS id type mol xu yu zu vx vy vz
1045 3 12 15.9838 9.12157 11.6386 51.2849 87.3835 106.749
ITEM: TIMESTEP
300
ITEM: NUMBER OF ATOMS
1
ITEM: BOX BOUNDS pp pp pp
-2.0000000000000000e+00 1.0000000000000000e+01
-2.0000000000000000e+00 1.0000000000000000e+01
0.0000000000000000e+00 3.0000000000000000e+02
ITEM: ATOMS id type mol xu yu zu vx vy vz
1045 3 12 18.2991 13.0411 16.4283 50.9874 86.6255 106.066
ITEM: TIMESTEP
400
ITEM: NUMBER OF ATOMS
1
ITEM: BOX BOUNDS pp pp pp
-2.0000000000000000e+00 1.0000000000000000e+01
-2.0000000000000000e+00 1.0000000000000000e+01
0.0000000000000000e+00 3.0000000000000000e+02
ITEM: ATOMS id type mol xu yu zu vx vy vz
1045 3 12 20.5605 16.9501 21.1916 50.8427 86.6596 105.522
ITEM: TIMESTEP
500
ITEM: NUMBER OF ATOMS
1
ITEM: BOX BOUNDS pp pp pp
-2.0000000000000000e+00 1.0000000000000000e+01
-2.0000000000000000e+00 1.0000000000000000e+01
0.0000000000000000e+00 3.0000000000000000e+02
ITEM: ATOMS id type mol xu yu zu vx vy vz
1045 3 12 22.8196 20.8433 25.9317 49.3049 86.6834 105.312
ITEM: TIMESTEP
600
ITEM: NUMBER OF ATOMS
1
ITEM: BOX BOUNDS pp pp pp
-2.0000000000000000e+00 1.0000000000000000e+01
-2.0000000000000000e+00 1.0000000000000000e+01
0.0000000000000000e+00 3.0000000000000000e+02
ITEM: ATOMS id type mol xu yu zu vx vy vz
1045 3 12 25.0341 24.7066 30.6668 49.7054 83.1026 105.968
ITEM: TIMESTEP
700
ITEM: NUMBER OF ATOMS
1
ITEM: BOX BOUNDS pp pp pp
-2.0000000000000000e+00 1.0000000000000000e+01
-2.0000000000000000e+00 1.0000000000000000e+01
0.0000000000000000e+00 3.0000000000000000e+02
ITEM: ATOMS id type mol xu yu zu vx vy vz
1045 3 12 27.619 28.3544 35.3113 60.4825 80.9971 101.627
ITEM: TIMESTEP
800
ITEM: NUMBER OF ATOMS
1
ITEM: BOX BOUNDS pp pp pp
-2.0000000000000000e+00 1.0000000000000000e+01
-2.0000000000000000e+00 1.0000000000000000e+01
0.0000000000000000e+00 3.0000000000000000e+02
ITEM: ATOMS id type mol xu yu zu vx vy vz
1045 3 12 30.3411 31.9831 39.8752 61.1566 79.3314 100.962
ITEM: TIMESTEP
900
ITEM: NUMBER OF ATOMS
1
ITEM: BOX BOUNDS pp pp pp
-2.0000000000000000e+00 1.0000000000000000e+01
-2.0000000000000000e+00 1.0000000000000000e+01
0.0000000000000000e+00 3.0000000000000000e+02
ITEM: ATOMS id type mol xu yu zu vx vy vz
1045 3 12 32.8393 35.25 43.3181 41.4595 35.9642 11.4675
ITEM: TIMESTEP
1000
ITEM: NUMBER OF ATOMS
1
ITEM: BOX BOUNDS pp pp pp
-2.0000000000000000e+00 1.0000000000000000e+01
-2.0000000000000000e+00 1.0000000000000000e+01
0.0000000000000000e+00 3.0000000000000000e+02
ITEM: ATOMS id type mol xu yu zu vx vy vz
1045 3 12 34.7332 36.8276 43.8636 41.9606 34.0406 12.2134
ITEM: TIMESTEP
1100
ITEM: NUMBER OF ATOMS
1
ITEM: BOX BOUNDS pp pp pp
-2.0000000000000000e+00 1.0000000000000000e+01
-2.0000000000000000e+00 1.0000000000000000e+01
0.0000000000000000e+00 3.0000000000000000e+02
ITEM: ATOMS id type mol xu yu zu vx vy vz
1045 3 12 36.6674 38.3183 44.3887 43.779 33.0089 11.2811
ITEM: TIMESTEP
1200
ITEM: NUMBER OF ATOMS
1
ITEM: BOX BOUNDS pp pp pp
-2.0000000000000000e+00 1.0000000000000000e+01
-2.0000000000000000e+00 1.0000000000000000e+01
0.0000000000000000e+00 3.0000000000000000e+02
ITEM: ATOMS id type mol xu yu zu vx vy vz
1045 3 12 38.5757 39.8336 44.897 41.511 34.711 11.4454
ITEM: TIMESTEP
1300
ITEM: NUMBER OF ATOMS
1
ITEM: BOX BOUNDS pp pp pp
-2.0000000000000000e+00 1.0000000000000000e+01
-2.0000000000000000e+00 1.0000000000000000e+01
0.0000000000000000e+00 3.0000000000000000e+02
ITEM: ATOMS id type mol xu yu zu vx vy vz
1045 3 12 40.4571 41.3941 45.4102 42.1943 34.5216 11.346
ITEM: TIMESTEP
1400
ITEM: NUMBER OF ATOMS
1
ITEM: BOX BOUNDS pp pp pp
-2.0000000000000000e+00 1.0000000000000000e+01
-2.0000000000000000e+00 1.0000000000000000e+01
0.0000000000000000e+00 3.0000000000000000e+02
ITEM: ATOMS id type mol xu yu zu vx vy vz
1045 3 12 42.3582 42.9387 45.9205 42.2516 33.7715 11.3551
ITEM: TIMESTEP
1500
ITEM: NUMBER OF ATOMS
1
ITEM: BOX BOUNDS pp pp pp
-2.0000000000000000e+00 1.0000000000000000e+01
-2.0000000000000000e+00 1.0000000000000000e+01
0.0000000000000000e+00 3.0000000000000000e+02
ITEM: ATOMS id type mol xu yu zu vx vy vz
1045 3 12 44.2644 44.4393 46.426 41.9293 33.0435 10.5712
ITEM: TIMESTEP
1600
ITEM: NUMBER OF ATOMS
1
ITEM: BOX BOUNDS pp pp pp
-2.0000000000000000e+00 1.0000000000000000e+01
-2.0000000000000000e+00 1.0000000000000000e+01
0.0000000000000000e+00 3.0000000000000000e+02
ITEM: ATOMS id type mol xu yu zu vx vy vz
1045 3 12 46.145 45.9645 46.8019 42.2602 34.2446 7.20425
ITEM: TIMESTEP
1700
ITEM: NUMBER OF ATOMS
1
ITEM: BOX BOUNDS pp pp pp
-2.0000000000000000e+00 1.0000000000000000e+01
-2.0000000000000000e+00 1.0000000000000000e+01
0.0000000000000000e+00 3.0000000000000000e+02
ITEM: ATOMS id type mol xu yu zu vx vy vz
1045 3 12 48.0611 47.494 47.119 42.8078 34.0305 7.24581
ITEM: TIMESTEP
1800
ITEM: NUMBER OF ATOMS
1
ITEM: BOX BOUNDS pp pp pp
-2.0000000000000000e+00 1.0000000000000000e+01
-2.0000000000000000e+00 1.0000000000000000e+01
0.0000000000000000e+00 3.0000000000000000e+02
ITEM: ATOMS id type mol xu yu zu vx vy vz
1045 3 12 49.9773 49.0096 47.4459 42.0673 32.0899 7.00333
ITEM: TIMESTEP
1900
ITEM: NUMBER OF ATOMS
1
ITEM: BOX BOUNDS pp pp pp
-2.0000000000000000e+00 1.0000000000000000e+01
-2.0000000000000000e+00 1.0000000000000000e+01
0.0000000000000000e+00 3.0000000000000000e+02
ITEM: ATOMS id type mol xu yu zu vx vy vz
1045 3 12 52.061 49.6255 47.7285 47.8469 9.34427 6.17222
ITEM: TIMESTEP
2000
ITEM: NUMBER OF ATOMS
1
ITEM: BOX BOUNDS pp pp pp
-2.0000000000000000e+00 1.0000000000000000e+01
-2.0000000000000000e+00 1.0000000000000000e+01
0.0000000000000000e+00 3.0000000000000000e+02
ITEM: ATOMS id type mol xu yu zu vx vy vz
1045 3 12 54.1861 49.996 48.0075 47.2501 7.11363 6.65384
ITEM: TIMESTEP
2100
ITEM: NUMBER OF ATOMS
1
ITEM: BOX BOUNDS pp pp pp
-2.0000000000000000e+00 1.0000000000000000e+01
-2.0000000000000000e+00 1.0000000000000000e+01
0.0000000000000000e+00 3.0000000000000000e+02
ITEM: ATOMS id type mol xu yu zu vx vy vz
1045 3 12 56.3391 50.3127 48.3191 47.8719 6.99334 6.85335
ITEM: TIMESTEP
2200
ITEM: NUMBER OF ATOMS
1
ITEM: BOX BOUNDS pp pp pp
-2.0000000000000000e+00 1.0000000000000000e+01
-2.0000000000000000e+00 1.0000000000000000e+01
0.0000000000000000e+00 3.0000000000000000e+02
ITEM: ATOMS id type mol xu yu zu vx vy vz
1045 3 12 58.4787 50.6159 48.6145 46.6777 6.23221 6.26536
ITEM: TIMESTEP
2300
ITEM: NUMBER OF ATOMS
1
ITEM: BOX BOUNDS pp pp pp
-2.0000000000000000e+00 1.0000000000000000e+01
-2.0000000000000000e+00 1.0000000000000000e+01
0.0000000000000000e+00 3.0000000000000000e+02
ITEM: ATOMS id type mol xu yu zu vx vy vz
1045 3 12 59.5073 50.3315 48.8251 9.8378 -13.0038 -3.63538
ITEM: TIMESTEP
2400
ITEM: NUMBER OF ATOMS
1
ITEM: BOX BOUNDS pp pp pp
-2.0000000000000000e+00 1.0000000000000000e+01
-2.0000000000000000e+00 1.0000000000000000e+01
0.0000000000000000e+00 3.0000000000000000e+02
ITEM: ATOMS id type mol xu yu zu vx vy vz
1045 3 12 59.9298 49.7218 48.6421 9.09012 -14.0896 -4.23975
ITEM: TIMESTEP
2500
ITEM: NUMBER OF ATOMS
1
ITEM: BOX BOUNDS pp pp pp
-2.0000000000000000e+00 1.0000000000000000e+01
-2.0000000000000000e+00 1.0000000000000000e+01
0.0000000000000000e+00 3.0000000000000000e+02
ITEM: ATOMS id type mol xu yu zu vx vy vz
1045 3 12 60.3225 49.0758 48.4456 8.44497 -14.6067 -4.46954
ITEM: TIMESTEP
2600
ITEM: NUMBER OF ATOMS
1
ITEM: BOX BOUNDS pp pp pp
-2.0000000000000000e+00 1.0000000000000000e+01
-2.0000000000000000e+00 1.0000000000000000e+01
0.0000000000000000e+00 3.0000000000000000e+02
ITEM: ATOMS id type mol xu yu zu vx vy vz
1045 3 12 60.6974 48.4162 48.2427 8.11327 -14.6272 -4.5745
ITEM: TIMESTEP
2700
ITEM: NUMBER OF ATOMS
1
ITEM: BOX BOUNDS pp pp pp
-2.0000000000000000e+00 1.0000000000000000e+01
-2.0000000000000000e+00 1.0000000000000000e+01
0.0000000000000000e+00 3.0000000000000000e+02
ITEM: ATOMS id type mol xu yu zu vx vy vz
1045 3 12 61.0578 47.7619 48.0328 8.06192 -14.3612 -4.55808
ITEM: TIMESTEP
2800
ITEM: NUMBER OF ATOMS
1
ITEM: BOX BOUNDS pp pp pp
-2.0000000000000000e+00 1.0000000000000000e+01
-2.0000000000000000e+00 1.0000000000000000e+01
0.0000000000000000e+00 3.0000000000000000e+02
ITEM: ATOMS id type mol xu yu zu vx vy vz
1045 3 12 61.4178 47.1337 47.8379 8.0673 -13.3376 -4.0636
ITEM: TIMESTEP
2900
ITEM: NUMBER OF ATOMS
1
ITEM: BOX BOUNDS pp pp pp
-2.0000000000000000e+00 1.0000000000000000e+01
-2.0000000000000000e+00 1.0000000000000000e+01
0.0000000000000000e+00 3.0000000000000000e+02
ITEM: ATOMS id type mol xu yu zu vx vy vz
1045 3 12 61.7899 46.5822 47.6674 8.54996 -10.9793 -3.39058
ITEM: TIMESTEP
3000
ITEM: NUMBER OF ATOMS
1
ITEM: BOX BOUNDS pp pp pp
-2.0000000000000000e+00 1.0000000000000000e+01
-2.0000000000000000e+00 1.0000000000000000e+01
0.0000000000000000e+00 3.0000000000000000e+02
ITEM: ATOMS id type mol xu yu zu vx vy vz
1045 3 12 62.2164 46.158 47.5341 10.7587 -7.78196 -2.91423
ITEM: TIMESTEP
3100
ITEM: NUMBER OF ATOMS
1
ITEM: BOX BOUNDS pp pp pp
-2.0000000000000000e+00 1.0000000000000000e+01
-2.0000000000000000e+00 1.0000000000000000e+01
0.0000000000000000e+00 3.0000000000000000e+02
ITEM: ATOMS id type mol xu yu zu vx vy vz
1045 3 12 62.7721 45.8609 47.3916 13.7018 -5.78924 -3.49217
ITEM: TIMESTEP
3200
ITEM: NUMBER OF ATOMS
1
ITEM: BOX BOUNDS pp pp pp
-2.0000000000000000e+00 1.0000000000000000e+01
-2.0000000000000000e+00 1.0000000000000000e+01
0.0000000000000000e+00 3.0000000000000000e+02
ITEM: ATOMS id type mol xu yu zu vx vy vz
1045 3 12 63.4057 45.6097 47.2315 14.048 -5.349 -3.4849
ITEM: TIMESTEP
3300
ITEM: NUMBER OF ATOMS
1
ITEM: BOX BOUNDS pp pp pp
-2.0000000000000000e+00 1.0000000000000000e+01
-2.0000000000000000e+00 1.0000000000000000e+01
0.0000000000000000e+00 3.0000000000000000e+02
ITEM: ATOMS id type mol xu yu zu vx vy vz
1045 3 12 64.0131 45.3859 47.0827 12.5656 -4.31248 -3.12447
ITEM: TIMESTEP
3400
ITEM: NUMBER OF ATOMS
1
ITEM: BOX BOUNDS pp pp pp
-2.0000000000000000e+00 1.0000000000000000e+01
-2.0000000000000000e+00 1.0000000000000000e+01
0.0000000000000000e+00 3.0000000000000000e+02
ITEM: ATOMS id type mol xu yu zu vx vy vz
1045 3 12 64.5071 45.2448 46.9491 9.00287 -1.19761 -2.72813
ITEM: TIMESTEP
3500
ITEM: NUMBER OF ATOMS
1
ITEM: BOX BOUNDS pp pp pp
-2.0000000000000000e+00 1.0000000000000000e+01
-2.0000000000000000e+00 1.0000000000000000e+01
0.0000000000000000e+00 3.0000000000000000e+02
ITEM: ATOMS id type mol xu yu zu vx vy vz
1045 3 12 64.815 45.3435 46.8512 5.37799 5.05385 -1.90846
ITEM: TIMESTEP
3600
ITEM: NUMBER OF ATOMS
1
ITEM: BOX BOUNDS pp pp pp
-2.0000000000000000e+00 1.0000000000000000e+01
-2.0000000000000000e+00 1.0000000000000000e+01
0.0000000000000000e+00 3.0000000000000000e+02
ITEM: ATOMS id type mol xu yu zu vx vy vz
1045 3 12 65.0352 45.6368 46.7607 4.76636 7.49309 -2.19756
ITEM: TIMESTEP
3700
ITEM: NUMBER OF ATOMS
1
ITEM: BOX BOUNDS pp pp pp
-2.0000000000000000e+00 1.0000000000000000e+01
-2.0000000000000000e+00 1.0000000000000000e+01
0.0000000000000000e+00 3.0000000000000000e+02
ITEM: ATOMS id type mol xu yu zu vx vy vz
1045 3 12 65.2633 46.0009 46.674 5.3659 8.67411 -1.63577
ITEM: TIMESTEP
3800
ITEM: NUMBER OF ATOMS
1
ITEM: BOX BOUNDS pp pp pp
-2.0000000000000000e+00 1.0000000000000000e+01
-2.0000000000000000e+00 1.0000000000000000e+01
0.0000000000000000e+00 3.0000000000000000e+02
ITEM: ATOMS id type mol xu yu zu vx vy vz
1045 3 12 65.5214 46.3852 46.5977 6.08732 8.44707 -1.7019
ITEM: TIMESTEP
3900
ITEM: NUMBER OF ATOMS
1
ITEM: BOX BOUNDS pp pp pp
-2.0000000000000000e+00 1.0000000000000000e+01
-2.0000000000000000e+00 1.0000000000000000e+01
0.0000000000000000e+00 3.0000000000000000e+02
ITEM: ATOMS id type mol xu yu zu vx vy vz
1045 3 12 65.8182 46.7619 46.5194 7.05445 8.32411 -1.74877
ITEM: TIMESTEP
4000
ITEM: NUMBER OF ATOMS
1
ITEM: BOX BOUNDS pp pp pp
-2.0000000000000000e+00 1.0000000000000000e+01
-2.0000000000000000e+00 1.0000000000000000e+01
0.0000000000000000e+00 3.0000000000000000e+02
ITEM: ATOMS id type mol xu yu zu vx vy vz
1045 3 12 66.1531 47.1334 46.4405 7.71496 8.25767 -1.86206
ITEM: TIMESTEP
4100
ITEM: NUMBER OF ATOMS
1
ITEM: BOX BOUNDS pp pp pp
-2.0000000000000000e+00 1.0000000000000000e+01
-2.0000000000000000e+00 1.0000000000000000e+01
0.0000000000000000e+00 3.0000000000000000e+02
ITEM: ATOMS id type mol xu yu zu vx vy vz
1045 3 12 66.5056 47.509 46.3545 7.94022 8.2911 -2.01207
ITEM: TIMESTEP
4200
ITEM: NUMBER OF ATOMS
1
ITEM: BOX BOUNDS pp pp pp
-2.0000000000000000e+00 1.0000000000000000e+01
-2.0000000000000000e+00 1.0000000000000000e+01
0.0000000000000000e+00 3.0000000000000000e+02
ITEM: ATOMS id type mol xu yu zu vx vy vz
1045 3 12 66.859 47.8771 46.2625 7.87119 8.20325 -2.13571
ITEM: TIMESTEP
4300
ITEM: NUMBER OF ATOMS
1
ITEM: BOX BOUNDS pp pp pp
-2.0000000000000000e+00 1.0000000000000000e+01
-2.0000000000000000e+00 1.0000000000000000e+01
0.0000000000000000e+00 3.0000000000000000e+02
ITEM: ATOMS id type mol xu yu zu vx vy vz
1045 3 12 67.212 48.2477 46.1645 7.84155 8.26376 -2.12574
ITEM: TIMESTEP
4400
ITEM: NUMBER OF ATOMS
1
ITEM: BOX BOUNDS pp pp pp
-2.0000000000000000e+00 1.0000000000000000e+01
-2.0000000000000000e+00 1.0000000000000000e+01
0.0000000000000000e+00 3.0000000000000000e+02
ITEM: ATOMS id type mol xu yu zu vx vy vz
1045 3 12 67.5671 48.6204 46.0657 7.91924 8.42873 -2.11814
ITEM: TIMESTEP
4500
ITEM: NUMBER OF ATOMS
1
ITEM: BOX BOUNDS pp pp pp
-2.0000000000000000e+00 1.0000000000000000e+01
-2.0000000000000000e+00 1.0000000000000000e+01
0.0000000000000000e+00 3.0000000000000000e+02
ITEM: ATOMS id type mol xu yu zu vx vy vz
1045 3 12 67.9222 49.0075 45.9815 7.83178 8.65187 -1.85988
ITEM: TIMESTEP
4600
ITEM: NUMBER OF ATOMS
1
ITEM: BOX BOUNDS pp pp pp
-2.0000000000000000e+00 1.0000000000000000e+01
-2.0000000000000000e+00 1.0000000000000000e+01
0.0000000000000000e+00 3.0000000000000000e+02
ITEM: ATOMS id type mol xu yu zu vx vy vz
1045 3 12 68.274 49.3813 45.8932 7.88978 7.87183 -2.21077
ITEM: TIMESTEP
4700
ITEM: NUMBER OF ATOMS
1
ITEM: BOX BOUNDS pp pp pp
-2.0000000000000000e+00 1.0000000000000000e+01
-2.0000000000000000e+00 1.0000000000000000e+01
0.0000000000000000e+00 3.0000000000000000e+02
ITEM: ATOMS id type mol xu yu zu vx vy vz
1045 3 12 68.634 49.7218 45.7948 8.10728 7.18788 -2.23955
ITEM: TIMESTEP
4800
ITEM: NUMBER OF ATOMS
1
ITEM: BOX BOUNDS pp pp pp
-2.0000000000000000e+00 1.0000000000000000e+01
-2.0000000000000000e+00 1.0000000000000000e+01
0.0000000000000000e+00 3.0000000000000000e+02
ITEM: ATOMS id type mol xu yu zu vx vy vz
1045 3 12 69.0159 50.0291 45.6944 8.86516 6.39907 -2.3263
ITEM: TIMESTEP
4900
ITEM: NUMBER OF ATOMS
1
ITEM: BOX BOUNDS pp pp pp
-2.0000000000000000e+00 1.0000000000000000e+01
-2.0000000000000000e+00 1.0000000000000000e+01
0.0000000000000000e+00 3.0000000000000000e+02
ITEM: ATOMS id type mol xu yu zu vx vy vz
1045 3 12 69.4362 50.2894 45.5921 9.79961 5.16646 -2.2247
ITEM: TIMESTEP
5000
ITEM: NUMBER OF ATOMS
1
ITEM: BOX BOUNDS pp pp pp
-2.0000000000000000e+00 1.0000000000000000e+01
-2.0000000000000000e+00 1.0000000000000000e+01
0.0000000000000000e+00 3.0000000000000000e+02
ITEM: ATOMS id type mol xu yu zu vx vy vz
1045 3 12 69.897 50.5068 45.4931 10.5816 4.56601 -2.31213
ITEM: TIMESTEP
5100
ITEM: NUMBER OF ATOMS
1
ITEM: BOX BOUNDS pp pp pp
-2.0000000000000000e+00 1.0000000000000000e+01
-2.0000000000000000e+00 1.0000000000000000e+01
0.0000000000000000e+00 3.0000000000000000e+02
ITEM: ATOMS id type mol xu yu zu vx vy vz
1045 3 12 70.3703 50.7028 45.3937 10.3082 4.19935 -2.04369
ITEM: TIMESTEP
5200
ITEM: NUMBER OF ATOMS
1
ITEM: BOX BOUNDS pp pp pp
-2.0000000000000000e+00 1.0000000000000000e+01
-2.0000000000000000e+00 1.0000000000000000e+01
0.0000000000000000e+00 3.0000000000000000e+02
ITEM: ATOMS id type mol xu yu zu vx vy vz
1045 3 12 70.8146 50.8889 45.3135 9.35624 3.96845 -1.46929
ITEM: TIMESTEP
5300
ITEM: NUMBER OF ATOMS
1
ITEM: BOX BOUNDS pp pp pp
-2.0000000000000000e+00 1.0000000000000000e+01
-2.0000000000000000e+00 1.0000000000000000e+01
0.0000000000000000e+00 3.0000000000000000e+02
ITEM: ATOMS id type mol xu yu zu vx vy vz
1045 3 12 71.1806 51.0577 45.2715 6.70332 3.27082 -0.347395
ITEM: TIMESTEP
5400
ITEM: NUMBER OF ATOMS
1
ITEM: BOX BOUNDS pp pp pp
-2.0000000000000000e+00 1.0000000000000000e+01
-2.0000000000000000e+00 1.0000000000000000e+01
0.0000000000000000e+00 3.0000000000000000e+02
ITEM: ATOMS id type mol xu yu zu vx vy vz
1045 3 12 71.4162 51.1813 45.2974 3.47971 2.28258 1.3453
ITEM: TIMESTEP
5500
ITEM: NUMBER OF ATOMS
1
ITEM: BOX BOUNDS pp pp pp
-2.0000000000000000e+00 1.0000000000000000e+01
-2.0000000000000000e+00 1.0000000000000000e+01
0.0000000000000000e+00 3.0000000000000000e+02
ITEM: ATOMS id type mol xu yu zu vx vy vz
1045 3 12 71.4977 51.2586 45.3867 0.25747 1.39343 2.53617
ITEM: TIMESTEP
5600
ITEM: NUMBER OF ATOMS
1
ITEM: BOX BOUNDS pp pp pp
-2.0000000000000000e+00 1.0000000000000000e+01
-2.0000000000000000e+00 1.0000000000000000e+01
0.0000000000000000e+00 3.0000000000000000e+02
ITEM: ATOMS id type mol xu yu zu vx vy vz
1045 3 12 71.4478 51.3049 45.5219 -2.26593 0.706908 3.16444
ITEM: TIMESTEP
5700
ITEM: NUMBER OF ATOMS
1
ITEM: BOX BOUNDS pp pp pp
-2.0000000000000000e+00 1.0000000000000000e+01
-2.0000000000000000e+00 1.0000000000000000e+01
0.0000000000000000e+00 3.0000000000000000e+02
ITEM: ATOMS id type mol xu yu zu vx vy vz
1045 3 12 71.3019 51.3218 45.6663 -4.07563 0.131539 3.15093
ITEM: TIMESTEP
5800
ITEM: NUMBER OF ATOMS
1
ITEM: BOX BOUNDS pp pp pp
-2.0000000000000000e+00 1.0000000000000000e+01
-2.0000000000000000e+00 1.0000000000000000e+01
0.0000000000000000e+00 3.0000000000000000e+02
ITEM: ATOMS id type mol xu yu zu vx vy vz
1045 3 12 71.0849 51.3137 45.7926 -5.53862 -0.474028 2.29945
ITEM: TIMESTEP
5900
ITEM: NUMBER OF ATOMS
1
ITEM: BOX BOUNDS pp pp pp
-2.0000000000000000e+00 1.0000000000000000e+01
-2.0000000000000000e+00 1.0000000000000000e+01
0.0000000000000000e+00 3.0000000000000000e+02
ITEM: ATOMS id type mol xu yu zu vx vy vz
1045 3 12 70.7971 51.2948 45.8797 -7.05808 -0.416104 1.6594
ITEM: TIMESTEP
6000
ITEM: NUMBER OF ATOMS
1
ITEM: BOX BOUNDS pp pp pp
-2.0000000000000000e+00 1.0000000000000000e+01
-2.0000000000000000e+00 1.0000000000000000e+01
0.0000000000000000e+00 3.0000000000000000e+02
ITEM: ATOMS id type mol xu yu zu vx vy vz
1045 3 12 70.4603 51.276 45.944 -7.57254 -0.195329 1.1525
ITEM: TIMESTEP
6100
ITEM: NUMBER OF ATOMS
1
ITEM: BOX BOUNDS pp pp pp
-2.0000000000000000e+00 1.0000000000000000e+01
-2.0000000000000000e+00 1.0000000000000000e+01
0.0000000000000000e+00 3.0000000000000000e+02
ITEM: ATOMS id type mol xu yu zu vx vy vz
1045 3 12 70.1169 51.2682 45.9875 -7.60126 -0.258197 0.809675
ITEM: TIMESTEP
6200
ITEM: NUMBER OF ATOMS
1
ITEM: BOX BOUNDS pp pp pp
-2.0000000000000000e+00 1.0000000000000000e+01
-2.0000000000000000e+00 1.0000000000000000e+01
0.0000000000000000e+00 3.0000000000000000e+02
ITEM: ATOMS id type mol xu yu zu vx vy vz
1045 3 12 69.7874 51.2672 46.0141 -6.93619 0.363459 0.436077
ITEM: TIMESTEP
6300
ITEM: NUMBER OF ATOMS
1
ITEM: BOX BOUNDS pp pp pp
-2.0000000000000000e+00 1.0000000000000000e+01
-2.0000000000000000e+00 1.0000000000000000e+01
0.0000000000000000e+00 3.0000000000000000e+02
ITEM: ATOMS id type mol xu yu zu vx vy vz
1045 3 12 69.4979 51.304 46.0327 -5.83431 1.22287 0.313135
ITEM: TIMESTEP
6400
ITEM: NUMBER OF ATOMS
1
ITEM: BOX BOUNDS pp pp pp
-2.0000000000000000e+00 1.0000000000000000e+01
-2.0000000000000000e+00 1.0000000000000000e+01
0.0000000000000000e+00 3.0000000000000000e+02
ITEM: ATOMS id type mol xu yu zu vx vy vz
1045 3 12 69.2752 51.3828 46.0418 -4.03311 2.30853 0.0928965
ITEM: TIMESTEP
6500
ITEM: NUMBER OF ATOMS
1
ITEM: BOX BOUNDS pp pp pp
-2.0000000000000000e+00 1.0000000000000000e+01
-2.0000000000000000e+00 1.0000000000000000e+01
0.0000000000000000e+00 3.0000000000000000e+02
ITEM: ATOMS id type mol xu yu zu vx vy vz
1045 3 12 69.1248 51.5166 46.0381 -2.7943 3.59252 -0.105167
ITEM: TIMESTEP
6600
ITEM: NUMBER OF ATOMS
1
ITEM: BOX BOUNDS pp pp pp
-2.0000000000000000e+00 1.0000000000000000e+01
-2.0000000000000000e+00 1.0000000000000000e+01
0.0000000000000000e+00 3.0000000000000000e+02
ITEM: ATOMS id type mol xu yu zu vx vy vz
1045 3 12 69.0252 51.6989 46.0389 -1.73161 4.44393 0.048121
ITEM: TIMESTEP
6700
ITEM: NUMBER OF ATOMS
1
ITEM: BOX BOUNDS pp pp pp
-2.0000000000000000e+00 1.0000000000000000e+01
-2.0000000000000000e+00 1.0000000000000000e+01
0.0000000000000000e+00 3.0000000000000000e+02
ITEM: ATOMS id type mol xu yu zu vx vy vz
1045 3 12 68.9683 51.9135 46.0406 -0.818483 4.99251 0.0725674
ITEM: TIMESTEP
6800
ITEM: NUMBER OF ATOMS
1
ITEM: BOX BOUNDS pp pp pp
-2.0000000000000000e+00 1.0000000000000000e+01
-2.0000000000000000e+00 1.0000000000000000e+01
0.0000000000000000e+00 3.0000000000000000e+02
ITEM: ATOMS id type mol xu yu zu vx vy vz
1045 3 12 68.9417 52.1463 46.0442 -0.339787 5.0907 -0.0142314
ITEM: TIMESTEP
6900
ITEM: NUMBER OF ATOMS
1
ITEM: BOX BOUNDS pp pp pp
-2.0000000000000000e+00 1.0000000000000000e+01
-2.0000000000000000e+00 1.0000000000000000e+01
0.0000000000000000e+00 3.0000000000000000e+02
ITEM: ATOMS id type mol xu yu zu vx vy vz
1045 3 12 68.9258 52.3738 46.0464 -0.414195 4.92222 0.212836
ITEM: TIMESTEP
7000
ITEM: NUMBER OF ATOMS
1
ITEM: BOX BOUNDS pp pp pp
-2.0000000000000000e+00 1.0000000000000000e+01
-2.0000000000000000e+00 1.0000000000000000e+01
0.0000000000000000e+00 3.0000000000000000e+02
ITEM: ATOMS id type mol xu yu zu vx vy vz
1045 3 12 68.9049 52.588 46.0663 -0.643279 4.55422 0.570187
ITEM: TIMESTEP
7100
ITEM: NUMBER OF ATOMS
1
ITEM: BOX BOUNDS pp pp pp
-2.0000000000000000e+00 1.0000000000000000e+01
-2.0000000000000000e+00 1.0000000000000000e+01
0.0000000000000000e+00 3.0000000000000000e+02
ITEM: ATOMS id type mol xu yu zu vx vy vz
1045 3 12 68.8641 52.7691 46.1033 -1.22878 3.52494 1.09277
ITEM: TIMESTEP
7200
ITEM: NUMBER OF ATOMS
1
ITEM: BOX BOUNDS pp pp pp
-2.0000000000000000e+00 1.0000000000000000e+01
-2.0000000000000000e+00 1.0000000000000000e+01
0.0000000000000000e+00 3.0000000000000000e+02
ITEM: ATOMS id type mol xu yu zu vx vy vz
1045 3 12 68.7961 52.9096 46.1667 -2.04987 2.83147 1.75723
ITEM: TIMESTEP
7300
ITEM: NUMBER OF ATOMS
1
ITEM: BOX BOUNDS pp pp pp
-2.0000000000000000e+00 1.0000000000000000e+01
-2.0000000000000000e+00 1.0000000000000000e+01
0.0000000000000000e+00 3.0000000000000000e+02
ITEM: ATOMS id type mol xu yu zu vx vy vz
1045 3 12 68.6825 53.0121 46.254 -3.06255 1.57276 2.11592
ITEM: TIMESTEP
7400
ITEM: NUMBER OF ATOMS
1
ITEM: BOX BOUNDS pp pp pp
-2.0000000000000000e+00 1.0000000000000000e+01
-2.0000000000000000e+00 1.0000000000000000e+01
0.0000000000000000e+00 3.0000000000000000e+02
ITEM: ATOMS id type mol xu yu zu vx vy vz
1045 3 12 68.5259 53.0565 46.3575 -3.72376 0.556533 2.65592
ITEM: TIMESTEP
7500
ITEM: NUMBER OF ATOMS
1
ITEM: BOX BOUNDS pp pp pp
-2.0000000000000000e+00 1.0000000000000000e+01
-2.0000000000000000e+00 1.0000000000000000e+01
0.0000000000000000e+00 3.0000000000000000e+02
ITEM: ATOMS id type mol xu yu zu vx vy vz
1045 3 12 68.3455 53.0639 46.485 -4.15328 -0.0613609 2.98603
ITEM: TIMESTEP
7600
ITEM: NUMBER OF ATOMS
1
ITEM: BOX BOUNDS pp pp pp
-2.0000000000000000e+00 1.0000000000000000e+01
-2.0000000000000000e+00 1.0000000000000000e+01
0.0000000000000000e+00 3.0000000000000000e+02
ITEM: ATOMS id type mol xu yu zu vx vy vz
1045 3 12 68.1488 53.059 46.6229 -4.59276 0.00672677 3.13405
ITEM: TIMESTEP
7700
ITEM: NUMBER OF ATOMS
1
ITEM: BOX BOUNDS pp pp pp
-2.0000000000000000e+00 1.0000000000000000e+01
-2.0000000000000000e+00 1.0000000000000000e+01
0.0000000000000000e+00 3.0000000000000000e+02
ITEM: ATOMS id type mol xu yu zu vx vy vz
1045 3 12 67.9368 53.0526 46.7683 -4.83265 -0.255471 3.34931
ITEM: TIMESTEP
7800
ITEM: NUMBER OF ATOMS
1
ITEM: BOX BOUNDS pp pp pp
-2.0000000000000000e+00 1.0000000000000000e+01
-2.0000000000000000e+00 1.0000000000000000e+01
0.0000000000000000e+00 3.0000000000000000e+02
ITEM: ATOMS id type mol xu yu zu vx vy vz
1045 3 12 67.7178 53.0415 46.9174 -4.92717 -0.167047 3.378
ITEM: TIMESTEP
7900
ITEM: NUMBER OF ATOMS
1
ITEM: BOX BOUNDS pp pp pp
-2.0000000000000000e+00 1.0000000000000000e+01
-2.0000000000000000e+00 1.0000000000000000e+01
0.0000000000000000e+00 3.0000000000000000e+02
ITEM: ATOMS id type mol xu yu zu vx vy vz
1045 3 12 67.5084 53.036 47.0711 -4.40377 -0.0515758 3.58303
ITEM: TIMESTEP
8000
ITEM: NUMBER OF ATOMS
1
ITEM: BOX BOUNDS pp pp pp
-2.0000000000000000e+00 1.0000000000000000e+01
-2.0000000000000000e+00 1.0000000000000000e+01
0.0000000000000000e+00 3.0000000000000000e+02
ITEM: ATOMS id type mol xu yu zu vx vy vz
1045 3 12 67.3204 53.0306 47.2399 -3.91085 0.0168357 3.80674
ITEM: TIMESTEP
8100
ITEM: NUMBER OF ATOMS
1
ITEM: BOX BOUNDS pp pp pp
-2.0000000000000000e+00 1.0000000000000000e+01
-2.0000000000000000e+00 1.0000000000000000e+01
0.0000000000000000e+00 3.0000000000000000e+02
ITEM: ATOMS id type mol xu yu zu vx vy vz
1045 3 12 67.16 53.0345 47.4083 -3.3131 0.353186 3.86442
ITEM: TIMESTEP
8200
ITEM: NUMBER OF ATOMS
1
ITEM: BOX BOUNDS pp pp pp
-2.0000000000000000e+00 1.0000000000000000e+01
-2.0000000000000000e+00 1.0000000000000000e+01
0.0000000000000000e+00 3.0000000000000000e+02
ITEM: ATOMS id type mol xu yu zu vx vy vz
1045 3 12 67.0302 53.0601 47.5835 -2.42504 0.749872 3.90465
ITEM: TIMESTEP
8300
ITEM: NUMBER OF ATOMS
1
ITEM: BOX BOUNDS pp pp pp
-2.0000000000000000e+00 1.0000000000000000e+01
-2.0000000000000000e+00 1.0000000000000000e+01
0.0000000000000000e+00 3.0000000000000000e+02
ITEM: ATOMS id type mol xu yu zu vx vy vz
1045 3 12 66.9403 53.105 47.7539 -1.53614 1.20746 3.78363
ITEM: TIMESTEP
8400
ITEM: NUMBER OF ATOMS
1
ITEM: BOX BOUNDS pp pp pp
-2.0000000000000000e+00 1.0000000000000000e+01
-2.0000000000000000e+00 1.0000000000000000e+01
0.0000000000000000e+00 3.0000000000000000e+02
ITEM: ATOMS id type mol xu yu zu vx vy vz
1045 3 12 66.8927 53.1751 47.9162 -0.532859 1.80602 3.55209
ITEM: TIMESTEP
8500
ITEM: NUMBER OF ATOMS
1
ITEM: BOX BOUNDS pp pp pp
-2.0000000000000000e+00 1.0000000000000000e+01
-2.0000000000000000e+00 1.0000000000000000e+01
0.0000000000000000e+00 3.0000000000000000e+02
ITEM: ATOMS id type mol xu yu zu vx vy vz
1045 3 12 66.8887 53.2746 48.0715 0.341189 2.65819 3.46642
ITEM: TIMESTEP
8600
ITEM: NUMBER OF ATOMS
1
ITEM: BOX BOUNDS pp pp pp
-2.0000000000000000e+00 1.0000000000000000e+01
-2.0000000000000000e+00 1.0000000000000000e+01
0.0000000000000000e+00 3.0000000000000000e+02
ITEM: ATOMS id type mol xu yu zu vx vy vz
1045 3 12 66.9286 53.4068 48.2253 1.47821 3.18054 3.38839
ITEM: TIMESTEP
8700
ITEM: NUMBER OF ATOMS
1
ITEM: BOX BOUNDS pp pp pp
-2.0000000000000000e+00 1.0000000000000000e+01
-2.0000000000000000e+00 1.0000000000000000e+01
0.0000000000000000e+00 3.0000000000000000e+02
ITEM: ATOMS id type mol xu yu zu vx vy vz
1045 3 12 67.0148 53.5568 48.3784 2.45337 3.60179 3.57684
ITEM: TIMESTEP
8800
ITEM: NUMBER OF ATOMS
1
ITEM: BOX BOUNDS pp pp pp
-2.0000000000000000e+00 1.0000000000000000e+01
-2.0000000000000000e+00 1.0000000000000000e+01
0.0000000000000000e+00 3.0000000000000000e+02
ITEM: ATOMS id type mol xu yu zu vx vy vz
1045 3 12 67.1417 53.7441 48.5387 3.32853 4.45816 3.61148
ITEM: TIMESTEP
8900
ITEM: NUMBER OF ATOMS
1
ITEM: BOX BOUNDS pp pp pp
-2.0000000000000000e+00 1.0000000000000000e+01
-2.0000000000000000e+00 1.0000000000000000e+01
0.0000000000000000e+00 3.0000000000000000e+02
ITEM: ATOMS id type mol xu yu zu vx vy vz
1045 3 12 67.3064 53.9556 48.7048 4.01657 4.88967 3.68609
ITEM: TIMESTEP
9000
ITEM: NUMBER OF ATOMS
1
ITEM: BOX BOUNDS pp pp pp
-2.0000000000000000e+00 1.0000000000000000e+01
-2.0000000000000000e+00 1.0000000000000000e+01
0.0000000000000000e+00 3.0000000000000000e+02
ITEM: ATOMS id type mol xu yu zu vx vy vz
1045 3 12 67.4946 54.1724 48.8685 4.10998 4.67071 3.66363
ITEM: TIMESTEP
9100
ITEM: NUMBER OF ATOMS
1
ITEM: BOX BOUNDS pp pp pp
-2.0000000000000000e+00 1.0000000000000000e+01
-2.0000000000000000e+00 1.0000000000000000e+01
0.0000000000000000e+00 3.0000000000000000e+02
ITEM: ATOMS id type mol xu yu zu vx vy vz
1045 3 12 67.6714 54.3757 49.0372 3.72815 4.28177 3.65247
ITEM: TIMESTEP
9200
ITEM: NUMBER OF ATOMS
1
ITEM: BOX BOUNDS pp pp pp
-2.0000000000000000e+00 1.0000000000000000e+01
-2.0000000000000000e+00 1.0000000000000000e+01
0.0000000000000000e+00 3.0000000000000000e+02
ITEM: ATOMS id type mol xu yu zu vx vy vz
1045 3 12 67.832 54.5532 49.1929 3.35823 3.44093 3.2934
ITEM: TIMESTEP
9300
ITEM: NUMBER OF ATOMS
1
ITEM: BOX BOUNDS pp pp pp
-2.0000000000000000e+00 1.0000000000000000e+01
-2.0000000000000000e+00 1.0000000000000000e+01
0.0000000000000000e+00 3.0000000000000000e+02
ITEM: ATOMS id type mol xu yu zu vx vy vz
1045 3 12 67.9753 54.6826 49.3325 3.00453 2.21523 3.03617
ITEM: TIMESTEP
9400
ITEM: NUMBER OF ATOMS
1
ITEM: BOX BOUNDS pp pp pp
-2.0000000000000000e+00 1.0000000000000000e+01
-2.0000000000000000e+00 1.0000000000000000e+01
0.0000000000000000e+00 3.0000000000000000e+02
ITEM: ATOMS id type mol xu yu zu vx vy vz
1045 3 12 68.0897 54.7557 49.4689 2.11083 1.10151 3.11434
ITEM: TIMESTEP
9500
ITEM: NUMBER OF ATOMS
1
ITEM: BOX BOUNDS pp pp pp
-2.0000000000000000e+00 1.0000000000000000e+01
-2.0000000000000000e+00 1.0000000000000000e+01
0.0000000000000000e+00 3.0000000000000000e+02
ITEM: ATOMS id type mol xu yu zu vx vy vz
1045 3 12 68.1724 54.7793 49.6086 1.70294 -0.173423 3.1256
ITEM: TIMESTEP
9600
ITEM: NUMBER OF ATOMS
1
ITEM: BOX BOUNDS pp pp pp
-2.0000000000000000e+00 1.0000000000000000e+01
-2.0000000000000000e+00 1.0000000000000000e+01