ITEM: TIMESTEP
0
ITEM: NUMBER OF ATOMS
1
ITEM: BOX BOUNDS pp pp pp
-2.0000000000000000e+00 1.0000000000000000e+01
-2.0000000000000000e+00 1.0000000000000000e+01
0.0000000000000000e+00 3.0000000000000000e+02
ITEM: ATOMS id type mol xu yu zu vx vy vz
1045 3 12 2.24304 -0.245032 1.23083 0 0 0
ITEM: TIMESTEP
100
ITEM: NUMBER OF ATOMS
1
ITEM: BOX BOUNDS pp pp pp
-2.0000000000000000e+00 1.0000000000000000e+01
-2.0000000000000000e+00 1.0000000000000000e+01
0.0000000000000000e+00 3.0000000000000000e+02
ITEM: ATOMS id type mol xu yu zu vx vy vz
1045 3 12 2.21584 -0.23316 1.228 -1.13499 0.355983 -0.00317654
ITEM: TIMESTEP
200
ITEM: NUMBER OF ATOMS
1
ITEM: BOX BOUNDS pp pp pp
-2.0000000000000000e+00 1.0000000000000000e+01
-2.0000000000000000e+00 1.0000000000000000e+01
0.0000000000000000e+00 3.0000000000000000e+02
ITEM: ATOMS id type mol xu yu zu vx vy vz
1045 3 12 2.13558 -0.211421 1.22601 -2.37032 0.545621 -0.24557
ITEM: TIMESTEP
300
ITEM: NUMBER OF ATOMS
1
ITEM: BOX BOUNDS pp pp pp
-2.0000000000000000e+00 1.0000000000000000e+01
-2.0000000000000000e+00 1.0000000000000000e+01
0.0000000000000000e+00 3.0000000000000000e+02
ITEM: ATOMS id type mol xu yu zu vx vy vz
1045 3 12 2.01178 -0.181753 1.21041 -3.06675 0.762505 -0.324159
ITEM: TIMESTEP
400
ITEM: NUMBER OF ATOMS
1
ITEM: BOX BOUNDS pp pp pp
-2.0000000000000000e+00 1.0000000000000000e+01
-2.0000000000000000e+00 1.0000000000000000e+01
0.0000000000000000e+00 3.0000000000000000e+02
ITEM: ATOMS id type mol xu yu zu vx vy vz
1045 3 12 1.86364 -0.143768 1.19666 -3.42506 0.895786 -0.256485
ITEM: TIMESTEP
500
ITEM: NUMBER OF ATOMS
1
ITEM: BOX BOUNDS pp pp pp
-2.0000000000000000e+00 1.0000000000000000e+01
-2.0000000000000000e+00 1.0000000000000000e+01
0.0000000000000000e+00 3.0000000000000000e+02
ITEM: ATOMS id type mol xu yu zu vx vy vz
1045 3 12 1.70788 -0.102845 1.17475 -3.34233 1.03339 -0.615151
ITEM: TIMESTEP
600
ITEM: NUMBER OF ATOMS
1
ITEM: BOX BOUNDS pp pp pp
-2.0000000000000000e+00 1.0000000000000000e+01
-2.0000000000000000e+00 1.0000000000000000e+01
0.0000000000000000e+00 3.0000000000000000e+02
ITEM: ATOMS id type mol xu yu zu vx vy vz
1045 3 12 1.58205 -0.0570855 1.1419 -2.28377 1.04942 -0.806791
ITEM: TIMESTEP
700
ITEM: NUMBER OF ATOMS
1
ITEM: BOX BOUNDS pp pp pp
-2.0000000000000000e+00 1.0000000000000000e+01
-2.0000000000000000e+00 1.0000000000000000e+01
0.0000000000000000e+00 3.0000000000000000e+02
ITEM: ATOMS id type mol xu yu zu vx vy vz
1045 3 12 1.51334 -0.00579504 1.10874 -0.668058 1.18083 -0.836577
ITEM: TIMESTEP
800
ITEM: NUMBER OF ATOMS
1
ITEM: BOX BOUNDS pp pp pp
-2.0000000000000000e+00 1.0000000000000000e+01
-2.0000000000000000e+00 1.0000000000000000e+01
0.0000000000000000e+00 3.0000000000000000e+02
ITEM: ATOMS id type mol xu yu zu vx vy vz
1045 3 12 1.51942 0.0413203 1.07681 1.00699 1.10055 -0.558641
ITEM: TIMESTEP
900
ITEM: NUMBER OF ATOMS
1
ITEM: BOX BOUNDS pp pp pp
-2.0000000000000000e+00 1.0000000000000000e+01
-2.0000000000000000e+00 1.0000000000000000e+01
0.0000000000000000e+00 3.0000000000000000e+02
ITEM: ATOMS id type mol xu yu zu vx vy vz
1045 3 12 1.5952 0.0925815 1.0547 2.233 1.03929 -0.458578
ITEM: TIMESTEP
1000
ITEM: NUMBER OF ATOMS
1
ITEM: BOX BOUNDS pp pp pp
-2.0000000000000000e+00 1.0000000000000000e+01
-2.0000000000000000e+00 1.0000000000000000e+01
0.0000000000000000e+00 3.0000000000000000e+02
ITEM: ATOMS id type mol xu yu zu vx vy vz
1045 3 12 1.72459 0.146494 1.03475 3.24972 1.24919 -0.500312
ITEM: TIMESTEP
1100
ITEM: NUMBER OF ATOMS
1
ITEM: BOX BOUNDS pp pp pp
-2.0000000000000000e+00 1.0000000000000000e+01
-2.0000000000000000e+00 1.0000000000000000e+01
0.0000000000000000e+00 3.0000000000000000e+02
ITEM: ATOMS id type mol xu yu zu vx vy vz
1045 3 12 1.88382 0.2076 1.01855 3.71825 1.61577 -0.192514
ITEM: TIMESTEP
1200
ITEM: NUMBER OF ATOMS
1
ITEM: BOX BOUNDS pp pp pp
-2.0000000000000000e+00 1.0000000000000000e+01
-2.0000000000000000e+00 1.0000000000000000e+01
0.0000000000000000e+00 3.0000000000000000e+02
ITEM: ATOMS id type mol xu yu zu vx vy vz
1045 3 12 2.0506 0.293521 1.01455 3.65483 2.1186 -0.129714
ITEM: TIMESTEP
1300
ITEM: NUMBER OF ATOMS
1
ITEM: BOX BOUNDS pp pp pp
-2.0000000000000000e+00 1.0000000000000000e+01
-2.0000000000000000e+00 1.0000000000000000e+01
0.0000000000000000e+00 3.0000000000000000e+02
ITEM: ATOMS id type mol xu yu zu vx vy vz
1045 3 12 2.20294 0.398789 1.00417 2.99487 2.68907 -0.393751
ITEM: TIMESTEP
1400
ITEM: NUMBER OF ATOMS
1
ITEM: BOX BOUNDS pp pp pp
-2.0000000000000000e+00 1.0000000000000000e+01
-2.0000000000000000e+00 1.0000000000000000e+01
0.0000000000000000e+00 3.0000000000000000e+02
ITEM: ATOMS id type mol xu yu zu vx vy vz
1045 3 12 2.32072 0.531784 0.986343 2.18508 3.22747 -0.362838
ITEM: TIMESTEP
1500
ITEM: NUMBER OF ATOMS
1
ITEM: BOX BOUNDS pp pp pp
-2.0000000000000000e+00 1.0000000000000000e+01
-2.0000000000000000e+00 1.0000000000000000e+01
0.0000000000000000e+00 3.0000000000000000e+02
ITEM: ATOMS id type mol xu yu zu vx vy vz
1045 3 12 2.39237 0.695846 0.973944 1.0246 3.98581 -0.144648
ITEM: TIMESTEP
1600
ITEM: NUMBER OF ATOMS
1
ITEM: BOX BOUNDS pp pp pp
-2.0000000000000000e+00 1.0000000000000000e+01
-2.0000000000000000e+00 1.0000000000000000e+01
0.0000000000000000e+00 3.0000000000000000e+02
ITEM: ATOMS id type mol xu yu zu vx vy vz
1045 3 12 2.42016 0.891713 0.973369 0.131535 4.78718 0.0725132
ITEM: TIMESTEP
1700
ITEM: NUMBER OF ATOMS
1
ITEM: BOX BOUNDS pp pp pp
-2.0000000000000000e+00 1.0000000000000000e+01
-2.0000000000000000e+00 1.0000000000000000e+01
0.0000000000000000e+00 3.0000000000000000e+02
ITEM: ATOMS id type mol xu yu zu vx vy vz
1045 3 12 2.40369 1.13081 0.981733 -0.626445 5.74842 0.489721
ITEM: TIMESTEP
1800
ITEM: NUMBER OF ATOMS
1
ITEM: BOX BOUNDS pp pp pp
-2.0000000000000000e+00 1.0000000000000000e+01
-2.0000000000000000e+00 1.0000000000000000e+01
0.0000000000000000e+00 3.0000000000000000e+02
ITEM: ATOMS id type mol xu yu zu vx vy vz
1045 3 12 2.36774 1.40306 1.00962 -0.886406 6.41968 0.639189
ITEM: TIMESTEP
1900
ITEM: NUMBER OF ATOMS
1
ITEM: BOX BOUNDS pp pp pp
-2.0000000000000000e+00 1.0000000000000000e+01
-2.0000000000000000e+00 1.0000000000000000e+01
0.0000000000000000e+00 3.0000000000000000e+02
ITEM: ATOMS id type mol xu yu zu vx vy vz
1045 3 12 2.31228 1.70792 1.04122 -1.53859 6.92627 0.594837
ITEM: TIMESTEP
2000
ITEM: NUMBER OF ATOMS
1
ITEM: BOX BOUNDS pp pp pp
-2.0000000000000000e+00 1.0000000000000000e+01
-2.0000000000000000e+00 1.0000000000000000e+01
0.0000000000000000e+00 3.0000000000000000e+02
ITEM: ATOMS id type mol xu yu zu vx vy vz
1045 3 12 2.23647 2.0116 1.06535 -2.0017 6.51948 0.459162
ITEM: TIMESTEP
2100
ITEM: NUMBER OF ATOMS
1
ITEM: BOX BOUNDS pp pp pp
-2.0000000000000000e+00 1.0000000000000000e+01
-2.0000000000000000e+00 1.0000000000000000e+01
0.0000000000000000e+00 3.0000000000000000e+02
ITEM: ATOMS id type mol xu yu zu vx vy vz
1045 3 12 2.13237 2.29188 1.08751 -2.48823 5.85304 0.415387
ITEM: TIMESTEP
2200
ITEM: NUMBER OF ATOMS
1
ITEM: BOX BOUNDS pp pp pp
-2.0000000000000000e+00 1.0000000000000000e+01
-2.0000000000000000e+00 1.0000000000000000e+01
0.0000000000000000e+00 3.0000000000000000e+02
ITEM: ATOMS id type mol xu yu zu vx vy vz
1045 3 12 2.00863 2.53163 1.09835 -2.91852 4.96059 0.306712
ITEM: TIMESTEP
2300
ITEM: NUMBER OF ATOMS
1
ITEM: BOX BOUNDS pp pp pp
-2.0000000000000000e+00 1.0000000000000000e+01
-2.0000000000000000e+00 1.0000000000000000e+01
0.0000000000000000e+00 3.0000000000000000e+02
ITEM: ATOMS id type mol xu yu zu vx vy vz
1045 3 12 1.87351 2.73382 1.10557 -3.1153 3.99539 0.134016
ITEM: TIMESTEP
2400
ITEM: NUMBER OF ATOMS
1
ITEM: BOX BOUNDS pp pp pp
-2.0000000000000000e+00 1.0000000000000000e+01
-2.0000000000000000e+00 1.0000000000000000e+01
0.0000000000000000e+00 3.0000000000000000e+02
ITEM: ATOMS id type mol xu yu zu vx vy vz
1045 3 12 1.74361 2.8903 1.10269 -2.59021 2.95503 -0.121506
ITEM: TIMESTEP
2500
ITEM: NUMBER OF ATOMS
1
ITEM: BOX BOUNDS pp pp pp
-2.0000000000000000e+00 1.0000000000000000e+01
-2.0000000000000000e+00 1.0000000000000000e+01
0.0000000000000000e+00 3.0000000000000000e+02
ITEM: ATOMS id type mol xu yu zu vx vy vz
1045 3 12 1.6359 3.01198 1.09374 -2.29472 2.46703 -0.251441
ITEM: TIMESTEP
2600
ITEM: NUMBER OF ATOMS
1
ITEM: BOX BOUNDS pp pp pp
-2.0000000000000000e+00 1.0000000000000000e+01
-2.0000000000000000e+00 1.0000000000000000e+01
0.0000000000000000e+00 3.0000000000000000e+02
ITEM: ATOMS id type mol xu yu zu vx vy vz
1045 3 12 1.54778 3.10176 1.08037 -1.66228 1.53484 -0.478947
ITEM: TIMESTEP
2700
ITEM: NUMBER OF ATOMS
1
ITEM: BOX BOUNDS pp pp pp
-2.0000000000000000e+00 1.0000000000000000e+01
-2.0000000000000000e+00 1.0000000000000000e+01
0.0000000000000000e+00 3.0000000000000000e+02
ITEM: ATOMS id type mol xu yu zu vx vy vz
1045 3 12 1.49481 3.15149 1.05194 -0.706143 0.664951 -0.677754
ITEM: TIMESTEP
2800
ITEM: NUMBER OF ATOMS
1
ITEM: BOX BOUNDS pp pp pp
-2.0000000000000000e+00 1.0000000000000000e+01
-2.0000000000000000e+00 1.0000000000000000e+01
0.0000000000000000e+00 3.0000000000000000e+02
ITEM: ATOMS id type mol xu yu zu vx vy vz
1045 3 12 1.48026 3.15618 1.01954 0.0217858 -0.359357 -0.659097
ITEM: TIMESTEP
2900
ITEM: NUMBER OF ATOMS
1
ITEM: BOX BOUNDS pp pp pp
-2.0000000000000000e+00 1.0000000000000000e+01
-2.0000000000000000e+00 1.0000000000000000e+01
0.0000000000000000e+00 3.0000000000000000e+02
ITEM: ATOMS id type mol xu yu zu vx vy vz
1045 3 12 1.5034 3.12132 0.991122 1.0122 -1.25828 -0.665012
ITEM: TIMESTEP
3000
ITEM: NUMBER OF ATOMS
1
ITEM: BOX BOUNDS pp pp pp
-2.0000000000000000e+00 1.0000000000000000e+01
-2.0000000000000000e+00 1.0000000000000000e+01
0.0000000000000000e+00 3.0000000000000000e+02
ITEM: ATOMS id type mol xu yu zu vx vy vz
1045 3 12 1.56356 3.04989 0.963065 1.64496 -1.93013 -0.48983
ITEM: TIMESTEP
3100
ITEM: NUMBER OF ATOMS
1
ITEM: BOX BOUNDS pp pp pp
-2.0000000000000000e+00 1.0000000000000000e+01
-2.0000000000000000e+00 1.0000000000000000e+01
0.0000000000000000e+00 3.0000000000000000e+02
ITEM: ATOMS id type mol xu yu zu vx vy vz
1045 3 12 1.64435 2.94743 0.944389 1.81181 -2.72371 -0.219457
ITEM: TIMESTEP
3200
ITEM: NUMBER OF ATOMS
1
ITEM: BOX BOUNDS pp pp pp
-2.0000000000000000e+00 1.0000000000000000e+01
-2.0000000000000000e+00 1.0000000000000000e+01
0.0000000000000000e+00 3.0000000000000000e+02
ITEM: ATOMS id type mol xu yu zu vx vy vz
1045 3 12 1.72858 2.81419 0.945866 1.95533 -3.41569 0.205811
ITEM: TIMESTEP
3300
ITEM: NUMBER OF ATOMS
1
ITEM: BOX BOUNDS pp pp pp
-2.0000000000000000e+00 1.0000000000000000e+01
-2.0000000000000000e+00 1.0000000000000000e+01
0.0000000000000000e+00 3.0000000000000000e+02
ITEM: ATOMS id type mol xu yu zu vx vy vz
1045 3 12 1.81893 2.63512 0.968311 2.08854 -4.44234 0.767925
ITEM: TIMESTEP
3400
ITEM: NUMBER OF ATOMS
1
ITEM: BOX BOUNDS pp pp pp
-2.0000000000000000e+00 1.0000000000000000e+01
-2.0000000000000000e+00 1.0000000000000000e+01
0.0000000000000000e+00 3.0000000000000000e+02
ITEM: ATOMS id type mol xu yu zu vx vy vz
1045 3 12 1.90958 2.41455 1.00013 1.92727 -5.14091 0.639244
ITEM: TIMESTEP
3500
ITEM: NUMBER OF ATOMS
1
ITEM: BOX BOUNDS pp pp pp
-2.0000000000000000e+00 1.0000000000000000e+01
-2.0000000000000000e+00 1.0000000000000000e+01
0.0000000000000000e+00 3.0000000000000000e+02
ITEM: ATOMS id type mol xu yu zu vx vy vz
1045 3 12 1.99155 2.16947 1.03332 1.88654 -5.75449 0.757278
ITEM: TIMESTEP
3600
ITEM: NUMBER OF ATOMS
1
ITEM: BOX BOUNDS pp pp pp
-2.0000000000000000e+00 1.0000000000000000e+01
-2.0000000000000000e+00 1.0000000000000000e+01
0.0000000000000000e+00 3.0000000000000000e+02
ITEM: ATOMS id type mol xu yu zu vx vy vz
1045 3 12 2.06615 1.90024 1.06501 1.27375 -6.11419 0.528766
ITEM: TIMESTEP
3700
ITEM: NUMBER OF ATOMS
1
ITEM: BOX BOUNDS pp pp pp
-2.0000000000000000e+00 1.0000000000000000e+01
-2.0000000000000000e+00 1.0000000000000000e+01
0.0000000000000000e+00 3.0000000000000000e+02
ITEM: ATOMS id type mol xu yu zu vx vy vz
1045 3 12 2.11151 1.63526 1.08124 0.747708 -5.6867 0.100055
ITEM: TIMESTEP
3800
ITEM: NUMBER OF ATOMS
1
ITEM: BOX BOUNDS pp pp pp
-2.0000000000000000e+00 1.0000000000000000e+01
-2.0000000000000000e+00 1.0000000000000000e+01
0.0000000000000000e+00 3.0000000000000000e+02
ITEM: ATOMS id type mol xu yu zu vx vy vz
1045 3 12 2.13745 1.39556 1.07967 0.264711 -4.95211 -0.251233
ITEM: TIMESTEP
3900
ITEM: NUMBER OF ATOMS
1
ITEM: BOX BOUNDS pp pp pp
-2.0000000000000000e+00 1.0000000000000000e+01
-2.0000000000000000e+00 1.0000000000000000e+01
0.0000000000000000e+00 3.0000000000000000e+02
ITEM: ATOMS id type mol xu yu zu vx vy vz
1045 3 12 2.13433 1.19151 1.05666 -0.355666 -4.09153 -0.787079
ITEM: TIMESTEP
4000
ITEM: NUMBER OF ATOMS
1
ITEM: BOX BOUNDS pp pp pp
-2.0000000000000000e+00 1.0000000000000000e+01
-2.0000000000000000e+00 1.0000000000000000e+01
0.0000000000000000e+00 3.0000000000000000e+02
ITEM: ATOMS id type mol xu yu zu vx vy vz
1045 3 12 2.10364 1.03137 1.01996 -1.02783 -3.06134 -0.918206
ITEM: TIMESTEP
4100
ITEM: NUMBER OF ATOMS
1
ITEM: BOX BOUNDS pp pp pp
-2.0000000000000000e+00 1.0000000000000000e+01
-2.0000000000000000e+00 1.0000000000000000e+01
0.0000000000000000e+00 3.0000000000000000e+02
ITEM: ATOMS id type mol xu yu zu vx vy vz
1045 3 12 2.04876 0.903898 0.980602 -1.40664 -2.56607 -0.583419
ITEM: TIMESTEP
4200
ITEM: NUMBER OF ATOMS
1
ITEM: BOX BOUNDS pp pp pp
-2.0000000000000000e+00 1.0000000000000000e+01
-2.0000000000000000e+00 1.0000000000000000e+01
0.0000000000000000e+00 3.0000000000000000e+02
ITEM: ATOMS id type mol xu yu zu vx vy vz
1045 3 12 1.98187 0.80016 0.97166 -1.68189 -1.96716 0.169016
ITEM: TIMESTEP
4300
ITEM: NUMBER OF ATOMS
1
ITEM: BOX BOUNDS pp pp pp
-2.0000000000000000e+00 1.0000000000000000e+01
-2.0000000000000000e+00 1.0000000000000000e+01
0.0000000000000000e+00 3.0000000000000000e+02
ITEM: ATOMS id type mol xu yu zu vx vy vz
1045 3 12 1.90052 0.723138 0.99125 -1.95862 -1.48793 0.768474
ITEM: TIMESTEP
4400
ITEM: NUMBER OF ATOMS
1
ITEM: BOX BOUNDS pp pp pp
-2.0000000000000000e+00 1.0000000000000000e+01
-2.0000000000000000e+00 1.0000000000000000e+01
0.0000000000000000e+00 3.0000000000000000e+02
ITEM: ATOMS id type mol xu yu zu vx vy vz
1045 3 12 1.81721 0.675513 1.02613 -1.68683 -0.557282 0.772327
ITEM: TIMESTEP
4500
ITEM: NUMBER OF ATOMS
1
ITEM: BOX BOUNDS pp pp pp
-2.0000000000000000e+00 1.0000000000000000e+01
-2.0000000000000000e+00 1.0000000000000000e+01
0.0000000000000000e+00 3.0000000000000000e+02
ITEM: ATOMS id type mol xu yu zu vx vy vz
1045 3 12 1.75302 0.667481 1.05707 -1.16824 0.173118 0.539545
ITEM: TIMESTEP
4600
ITEM: NUMBER OF ATOMS
1
ITEM: BOX BOUNDS pp pp pp
-2.0000000000000000e+00 1.0000000000000000e+01
-2.0000000000000000e+00 1.0000000000000000e+01
0.0000000000000000e+00 3.0000000000000000e+02
ITEM: ATOMS id type mol xu yu zu vx vy vz
1045 3 12 1.70687 0.693848 1.0733 -0.877813 0.883511 0.329098
ITEM: TIMESTEP
4700
ITEM: NUMBER OF ATOMS
1
ITEM: BOX BOUNDS pp pp pp
-2.0000000000000000e+00 1.0000000000000000e+01
-2.0000000000000000e+00 1.0000000000000000e+01
0.0000000000000000e+00 3.0000000000000000e+02
ITEM: ATOMS id type mol xu yu zu vx vy vz
1045 3 12 1.6744 0.754973 1.09159 -0.50878 1.74824 0.426916
ITEM: TIMESTEP
4800
ITEM: NUMBER OF ATOMS
1
ITEM: BOX BOUNDS pp pp pp
-2.0000000000000000e+00 1.0000000000000000e+01
-2.0000000000000000e+00 1.0000000000000000e+01
0.0000000000000000e+00 3.0000000000000000e+02
ITEM: ATOMS id type mol xu yu zu vx vy vz
1045 3 12 1.66011 0.855489 1.10715 -0.120871 2.71127 0.240602
ITEM: TIMESTEP
4900
ITEM: NUMBER OF ATOMS
1
ITEM: BOX BOUNDS pp pp pp
-2.0000000000000000e+00 1.0000000000000000e+01
-2.0000000000000000e+00 1.0000000000000000e+01
0.0000000000000000e+00 3.0000000000000000e+02
ITEM: ATOMS id type mol xu yu zu vx vy vz
1045 3 12 1.65141 0.997571 1.12241 -0.025051 3.51422 0.295393
ITEM: TIMESTEP
5000
ITEM: NUMBER OF ATOMS
1
ITEM: BOX BOUNDS pp pp pp
-2.0000000000000000e+00 1.0000000000000000e+01
-2.0000000000000000e+00 1.0000000000000000e+01
0.0000000000000000e+00 3.0000000000000000e+02
ITEM: ATOMS id type mol xu yu zu vx vy vz
1045 3 12 1.66516 1.17532 1.12557 0.509221 4.40162 -0.100007
ITEM: TIMESTEP
5100
ITEM: NUMBER OF ATOMS
1
ITEM: BOX BOUNDS pp pp pp
-2.0000000000000000e+00 1.0000000000000000e+01
-2.0000000000000000e+00 1.0000000000000000e+01
0.0000000000000000e+00 3.0000000000000000e+02
ITEM: ATOMS id type mol xu yu zu vx vy vz
1045 3 12 1.69802 1.39405 1.11907 0.942067 5.29221 -0.0440092
ITEM: TIMESTEP
5200
ITEM: NUMBER OF ATOMS
1
ITEM: BOX BOUNDS pp pp pp
-2.0000000000000000e+00 1.0000000000000000e+01
-2.0000000000000000e+00 1.0000000000000000e+01
0.0000000000000000e+00 3.0000000000000000e+02
ITEM: ATOMS id type mol xu yu zu vx vy vz
1045 3 12 1.74751 1.64259 1.12158 1.16079 5.84709 0.0137213
ITEM: TIMESTEP
5300
ITEM: NUMBER OF ATOMS
1
ITEM: BOX BOUNDS pp pp pp
-2.0000000000000000e+00 1.0000000000000000e+01
-2.0000000000000000e+00 1.0000000000000000e+01
0.0000000000000000e+00 3.0000000000000000e+02
ITEM: ATOMS id type mol xu yu zu vx vy vz
1045 3 12 1.81148 1.91812 1.11912 1.62491 6.43829 -0.0633337
ITEM: TIMESTEP
5400
ITEM: NUMBER OF ATOMS
1
ITEM: BOX BOUNDS pp pp pp
-2.0000000000000000e+00 1.0000000000000000e+01
-2.0000000000000000e+00 1.0000000000000000e+01
0.0000000000000000e+00 3.0000000000000000e+02
ITEM: ATOMS id type mol xu yu zu vx vy vz
1045 3 12 1.89208 2.20636 1.1202 2.03939 6.14978 0.0286297
ITEM: TIMESTEP
5500
ITEM: NUMBER OF ATOMS
1
ITEM: BOX BOUNDS pp pp pp
-2.0000000000000000e+00 1.0000000000000000e+01
-2.0000000000000000e+00 1.0000000000000000e+01
0.0000000000000000e+00 3.0000000000000000e+02
ITEM: ATOMS id type mol xu yu zu vx vy vz
1045 3 12 1.98116 2.46781 1.12211 1.91828 5.53823 0.076547
ITEM: TIMESTEP
5600
ITEM: NUMBER OF ATOMS
1
ITEM: BOX BOUNDS pp pp pp
-2.0000000000000000e+00 1.0000000000000000e+01
-2.0000000000000000e+00 1.0000000000000000e+01
0.0000000000000000e+00 3.0000000000000000e+02
ITEM: ATOMS id type mol xu yu zu vx vy vz
1045 3 12 2.07078 2.70167 1.12942 2.2179 4.85199 0.300166
ITEM: TIMESTEP
5700
ITEM: NUMBER OF ATOMS
1
ITEM: BOX BOUNDS pp pp pp
-2.0000000000000000e+00 1.0000000000000000e+01
-2.0000000000000000e+00 1.0000000000000000e+01
0.0000000000000000e+00 3.0000000000000000e+02
ITEM: ATOMS id type mol xu yu zu vx vy vz
1045 3 12 2.1637 2.89503 1.13867 1.89091 3.67613 0.183092
ITEM: TIMESTEP
5800
ITEM: NUMBER OF ATOMS
1
ITEM: BOX BOUNDS pp pp pp
-2.0000000000000000e+00 1.0000000000000000e+01
-2.0000000000000000e+00 1.0000000000000000e+01
0.0000000000000000e+00 3.0000000000000000e+02
ITEM: ATOMS id type mol xu yu zu vx vy vz
1045 3 12 2.23489 3.04062 1.13888 1.2002 2.68442 -0.148668
ITEM: TIMESTEP
5900
ITEM: NUMBER OF ATOMS
1
ITEM: BOX BOUNDS pp pp pp
-2.0000000000000000e+00 1.0000000000000000e+01
-2.0000000000000000e+00 1.0000000000000000e+01
0.0000000000000000e+00 3.0000000000000000e+02
ITEM: ATOMS id type mol xu yu zu vx vy vz
1045 3 12 2.27642 3.136 1.12927 0.545648 1.58436 -0.264318
ITEM: TIMESTEP
6000
ITEM: NUMBER OF ATOMS
1
ITEM: BOX BOUNDS pp pp pp
-2.0000000000000000e+00 1.0000000000000000e+01
-2.0000000000000000e+00 1.0000000000000000e+01
0.0000000000000000e+00 3.0000000000000000e+02
ITEM: ATOMS id type mol xu yu zu vx vy vz
1045 3 12 2.28557 3.1832 1.11311 -0.0558105 0.488319 -0.324816
ITEM: TIMESTEP
6100
ITEM: NUMBER OF ATOMS
1
ITEM: BOX BOUNDS pp pp pp
-2.0000000000000000e+00 1.0000000000000000e+01
-2.0000000000000000e+00 1.0000000000000000e+01
0.0000000000000000e+00 3.0000000000000000e+02
ITEM: ATOMS id type mol xu yu zu vx vy vz
1045 3 12 2.26733 3.17294 1.09168 -0.722181 -0.748985 -0.647869
ITEM: TIMESTEP
6200
ITEM: NUMBER OF ATOMS
1
ITEM: BOX BOUNDS pp pp pp
-2.0000000000000000e+00 1.0000000000000000e+01
-2.0000000000000000e+00 1.0000000000000000e+01
0.0000000000000000e+00 3.0000000000000000e+02
ITEM: ATOMS id type mol xu yu zu vx vy vz
1045 3 12 2.22077 3.12493 1.05398 -1.29643 -1.438 -1.01897
ITEM: TIMESTEP
6300
ITEM: NUMBER OF ATOMS
1
ITEM: BOX BOUNDS pp pp pp
-2.0000000000000000e+00 1.0000000000000000e+01
-2.0000000000000000e+00 1.0000000000000000e+01
0.0000000000000000e+00 3.0000000000000000e+02
ITEM: ATOMS id type mol xu yu zu vx vy vz
1045 3 12 2.16254 3.03113 1.00686 -1.33683 -2.577 -0.906239
ITEM: TIMESTEP
6400
ITEM: NUMBER OF ATOMS
1
ITEM: BOX BOUNDS pp pp pp
-2.0000000000000000e+00 1.0000000000000000e+01
-2.0000000000000000e+00 1.0000000000000000e+01
0.0000000000000000e+00 3.0000000000000000e+02
ITEM: ATOMS id type mol xu yu zu vx vy vz
1045 3 12 2.10321 2.90129 0.981058 -1.3675 -3.19623 -0.325804
ITEM: TIMESTEP
6500
ITEM: NUMBER OF ATOMS
1
ITEM: BOX BOUNDS pp pp pp
-2.0000000000000000e+00 1.0000000000000000e+01
-2.0000000000000000e+00 1.0000000000000000e+01
0.0000000000000000e+00 3.0000000000000000e+02
ITEM: ATOMS id type mol xu yu zu vx vy vz
1045 3 12 2.04114 2.73268 0.984265 -1.36546 -4.25518 0.376465
ITEM: TIMESTEP
6600
ITEM: NUMBER OF ATOMS
1
ITEM: BOX BOUNDS pp pp pp
-2.0000000000000000e+00 1.0000000000000000e+01
-2.0000000000000000e+00 1.0000000000000000e+01
0.0000000000000000e+00 3.0000000000000000e+02
ITEM: ATOMS id type mol xu yu zu vx vy vz
1045 3 12 1.98915 2.51783 1.01235 -0.984539 -5.20516 0.74356
ITEM: TIMESTEP
6700
ITEM: NUMBER OF ATOMS
1
ITEM: BOX BOUNDS pp pp pp
-2.0000000000000000e+00 1.0000000000000000e+01
-2.0000000000000000e+00 1.0000000000000000e+01
0.0000000000000000e+00 3.0000000000000000e+02
ITEM: ATOMS id type mol xu yu zu vx vy vz
1045 3 12 1.94911 2.27398 1.04266 -0.881444 -5.79542 0.732937
ITEM: TIMESTEP
6800
ITEM: NUMBER OF ATOMS
1
ITEM: BOX BOUNDS pp pp pp
-2.0000000000000000e+00 1.0000000000000000e+01
-2.0000000000000000e+00 1.0000000000000000e+01
0.0000000000000000e+00 3.0000000000000000e+02
ITEM: ATOMS id type mol xu yu zu vx vy vz
1045 3 12 1.91912 2.00507 1.07646 -0.477637 -5.98 0.680842
ITEM: TIMESTEP
6900
ITEM: NUMBER OF ATOMS
1
ITEM: BOX BOUNDS pp pp pp
-2.0000000000000000e+00 1.0000000000000000e+01
-2.0000000000000000e+00 1.0000000000000000e+01
0.0000000000000000e+00 3.0000000000000000e+02
ITEM: ATOMS id type mol xu yu zu vx vy vz
1045 3 12 1.90128 1.739 1.11106 -0.350212 -5.7589 0.763815
ITEM: TIMESTEP
7000
ITEM: NUMBER OF ATOMS
1
ITEM: BOX BOUNDS pp pp pp
-2.0000000000000000e+00 1.0000000000000000e+01
-2.0000000000000000e+00 1.0000000000000000e+01
0.0000000000000000e+00 3.0000000000000000e+02
ITEM: ATOMS id type mol xu yu zu vx vy vz
1045 3 12 1.8893 1.49059 1.1431 -0.0764645 -5.20394 0.592184
ITEM: TIMESTEP
7100
ITEM: NUMBER OF ATOMS
1
ITEM: BOX BOUNDS pp pp pp
-2.0000000000000000e+00 1.0000000000000000e+01
-2.0000000000000000e+00 1.0000000000000000e+01
0.0000000000000000e+00 3.0000000000000000e+02
ITEM: ATOMS id type mol xu yu zu vx vy vz
1045 3 12 1.8792 1.27256 1.17094 -0.347373 -4.36674 0.647442
ITEM: TIMESTEP
7200
ITEM: NUMBER OF ATOMS
1
ITEM: BOX BOUNDS pp pp pp
-2.0000000000000000e+00 1.0000000000000000e+01
-2.0000000000000000e+00 1.0000000000000000e+01
0.0000000000000000e+00 3.0000000000000000e+02
ITEM: ATOMS id type mol xu yu zu vx vy vz
1045 3 12 1.86137 1.09084 1.20409 -0.39015 -3.84078 0.688845
ITEM: TIMESTEP
7300
ITEM: NUMBER OF ATOMS
1
ITEM: BOX BOUNDS pp pp pp
-2.0000000000000000e+00 1.0000000000000000e+01
-2.0000000000000000e+00 1.0000000000000000e+01
0.0000000000000000e+00 3.0000000000000000e+02
ITEM: ATOMS id type mol xu yu zu vx vy vz
1045 3 12 1.83994 0.92842 1.23217 -0.528967 -3.28607 0.5428
ITEM: TIMESTEP
7400
ITEM: NUMBER OF ATOMS
1
ITEM: BOX BOUNDS pp pp pp
-2.0000000000000000e+00 1.0000000000000000e+01
-2.0000000000000000e+00 1.0000000000000000e+01
0.0000000000000000e+00 3.0000000000000000e+02
ITEM: ATOMS id type mol xu yu zu vx vy vz
1045 3 12 1.81987 0.792927 1.25676 -0.28463 -2.629 0.49561
ITEM: TIMESTEP
7500
ITEM: NUMBER OF ATOMS
1
ITEM: BOX BOUNDS pp pp pp
-2.0000000000000000e+00 1.0000000000000000e+01
-2.0000000000000000e+00 1.0000000000000000e+01
0.0000000000000000e+00 3.0000000000000000e+02
ITEM: ATOMS id type mol xu yu zu vx vy vz
1045 3 12 1.80714 0.693938 1.27074 -0.177242 -1.79397 0.128509
ITEM: TIMESTEP
7600
ITEM: NUMBER OF ATOMS
1
ITEM: BOX BOUNDS pp pp pp
-2.0000000000000000e+00 1.0000000000000000e+01
-2.0000000000000000e+00 1.0000000000000000e+01
0.0000000000000000e+00 3.0000000000000000e+02
ITEM: ATOMS id type mol xu yu zu vx vy vz
1045 3 12 1.80961 0.633575 1.26776 0.269374 -1.10557 -0.208659
ITEM: TIMESTEP
7700
ITEM: NUMBER OF ATOMS
1
ITEM: BOX BOUNDS pp pp pp
-2.0000000000000000e+00 1.0000000000000000e+01
-2.0000000000000000e+00 1.0000000000000000e+01
0.0000000000000000e+00 3.0000000000000000e+02
ITEM: ATOMS id type mol xu yu zu vx vy vz
1045 3 12 1.8266 0.603403 1.26395 0.531596 -0.247487 0.078262
ITEM: TIMESTEP
7800
ITEM: NUMBER OF ATOMS
1
ITEM: BOX BOUNDS pp pp pp
-2.0000000000000000e+00 1.0000000000000000e+01
-2.0000000000000000e+00 1.0000000000000000e+01
0.0000000000000000e+00 3.0000000000000000e+02
ITEM: ATOMS id type mol xu yu zu vx vy vz
1045 3 12 1.85159 0.606246 1.27857 0.589222 0.332068 0.442924
ITEM: TIMESTEP
7900
ITEM: NUMBER OF ATOMS
1
ITEM: BOX BOUNDS pp pp pp
-2.0000000000000000e+00 1.0000000000000000e+01
-2.0000000000000000e+00 1.0000000000000000e+01
0.0000000000000000e+00 3.0000000000000000e+02
ITEM: ATOMS id type mol xu yu zu vx vy vz
1045 3 12 1.87352 0.634405 1.29628 0.499855 0.999586 0.343879
ITEM: TIMESTEP
8000
ITEM: NUMBER OF ATOMS
1
ITEM: BOX BOUNDS pp pp pp
-2.0000000000000000e+00 1.0000000000000000e+01
-2.0000000000000000e+00 1.0000000000000000e+01
0.0000000000000000e+00 3.0000000000000000e+02
ITEM: ATOMS id type mol xu yu zu vx vy vz
1045 3 12 1.89846 0.705671 1.3089 0.625341 2.13898 0.326124
ITEM: TIMESTEP
8100
ITEM: NUMBER OF ATOMS
1
ITEM: BOX BOUNDS pp pp pp
-2.0000000000000000e+00 1.0000000000000000e+01
-2.0000000000000000e+00 1.0000000000000000e+01
0.0000000000000000e+00 3.0000000000000000e+02
ITEM: ATOMS id type mol xu yu zu vx vy vz
1045 3 12 1.92905 0.820606 1.32261 0.699054 3.01265 0.348688
ITEM: TIMESTEP
8200
ITEM: NUMBER OF ATOMS
1
ITEM: BOX BOUNDS pp pp pp
-2.0000000000000000e+00 1.0000000000000000e+01
-2.0000000000000000e+00 1.0000000000000000e+01
0.0000000000000000e+00 3.0000000000000000e+02
ITEM: ATOMS id type mol xu yu zu vx vy vz
1045 3 12 1.95443 0.972003 1.34342 0.727995 3.67412 0.471947
ITEM: TIMESTEP
8300
ITEM: NUMBER OF ATOMS
1
ITEM: BOX BOUNDS pp pp pp
-2.0000000000000000e+00 1.0000000000000000e+01
-2.0000000000000000e+00 1.0000000000000000e+01
0.0000000000000000e+00 3.0000000000000000e+02
ITEM: ATOMS id type mol xu yu zu vx vy vz
1045 3 12 1.98872 1.15832 1.37085 0.759225 4.6368 0.728389
ITEM: TIMESTEP
8400
ITEM: NUMBER OF ATOMS
1
ITEM: BOX BOUNDS pp pp pp
-2.0000000000000000e+00 1.0000000000000000e+01
-2.0000000000000000e+00 1.0000000000000000e+01
0.0000000000000000e+00 3.0000000000000000e+02
ITEM: ATOMS id type mol xu yu zu vx vy vz
1045 3 12 2.02253 1.38389 1.40772 0.72464 5.48061 0.8966
ITEM: TIMESTEP
8500
ITEM: NUMBER OF ATOMS
1
ITEM: BOX BOUNDS pp pp pp
-2.0000000000000000e+00 1.0000000000000000e+01
-2.0000000000000000e+00 1.0000000000000000e+01
0.0000000000000000e+00 3.0000000000000000e+02
ITEM: ATOMS id type mol xu yu zu vx vy vz
1045 3 12 2.05271 1.63878 1.45775 0.597242 5.78434 1.30301
ITEM: TIMESTEP
8600
ITEM: NUMBER OF ATOMS
1
ITEM: BOX BOUNDS pp pp pp
-2.0000000000000000e+00 1.0000000000000000e+01
-2.0000000000000000e+00 1.0000000000000000e+01
0.0000000000000000e+00 3.0000000000000000e+02
ITEM: ATOMS id type mol xu yu zu vx vy vz
1045 3 12 2.07902 1.90297 1.51317 0.484146 5.85847 1.25714
ITEM: TIMESTEP
8700
ITEM: NUMBER OF ATOMS
1
ITEM: BOX BOUNDS pp pp pp
-2.0000000000000000e+00 1.0000000000000000e+01
-2.0000000000000000e+00 1.0000000000000000e+01
0.0000000000000000e+00 3.0000000000000000e+02
ITEM: ATOMS id type mol xu yu zu vx vy vz
1045 3 12 2.0994 2.15867 1.57202 0.315026 5.51893 1.39733
ITEM: TIMESTEP
8800
ITEM: NUMBER OF ATOMS
1
ITEM: BOX BOUNDS pp pp pp
-2.0000000000000000e+00 1.0000000000000000e+01
-2.0000000000000000e+00 1.0000000000000000e+01
0.0000000000000000e+00 3.0000000000000000e+02
ITEM: ATOMS id type mol xu yu zu vx vy vz
1045 3 12 2.12021 2.39715 1.63539 0.574356 5.02585 1.43545
ITEM: TIMESTEP
8900
ITEM: NUMBER OF ATOMS
1
ITEM: BOX BOUNDS pp pp pp
-2.0000000000000000e+00 1.0000000000000000e+01
-2.0000000000000000e+00 1.0000000000000000e+01
0.0000000000000000e+00 3.0000000000000000e+02
ITEM: ATOMS id type mol xu yu zu vx vy vz
1045 3 12 2.15134 2.61427 1.7073 0.704426 4.5557 1.75897
ITEM: TIMESTEP
9000
ITEM: NUMBER OF ATOMS
1
ITEM: BOX BOUNDS pp pp pp
-2.0000000000000000e+00 1.0000000000000000e+01
-2.0000000000000000e+00 1.0000000000000000e+01
0.0000000000000000e+00 3.0000000000000000e+02
ITEM: ATOMS id type mol xu yu zu vx vy vz
1045 3 12 2.18356 2.79913 1.79299 0.608351 3.60594 1.93636
ITEM: TIMESTEP
9100
ITEM: NUMBER OF ATOMS
1
ITEM: BOX BOUNDS pp pp pp
-2.0000000000000000e+00 1.0000000000000000e+01
-2.0000000000000000e+00 1.0000000000000000e+01
0.0000000000000000e+00 3.0000000000000000e+02
ITEM: ATOMS id type mol xu yu zu vx vy vz
1045 3 12 2.20511 2.94423 1.87452 0.346799 2.81549 1.63638
ITEM: TIMESTEP
9200
ITEM: NUMBER OF ATOMS
1
ITEM: BOX BOUNDS pp pp pp
-2.0000000000000000e+00 1.0000000000000000e+01
-2.0000000000000000e+00 1.0000000000000000e+01
0.0000000000000000e+00 3.0000000000000000e+02
ITEM: ATOMS id type mol xu yu zu vx vy vz
1045 3 12 2.21846 3.04952 1.95292 0.0573009 1.81256 1.7654
ITEM: TIMESTEP
9300
ITEM: NUMBER OF ATOMS
1
ITEM: BOX BOUNDS pp pp pp
-2.0000000000000000e+00 1.0000000000000000e+01
-2.0000000000000000e+00 1.0000000000000000e+01
0.0000000000000000e+00 3.0000000000000000e+02
ITEM: ATOMS id type mol xu yu zu vx vy vz
1045 3 12 2.21354 3.10092 2.03462 -0.45114 0.509167 1.79379
ITEM: TIMESTEP
9400
ITEM: NUMBER OF ATOMS
1
ITEM: BOX BOUNDS pp pp pp
-2.0000000000000000e+00 1.0000000000000000e+01
-2.0000000000000000e+00 1.0000000000000000e+01
0.0000000000000000e+00 3.0000000000000000e+02
ITEM: ATOMS id type mol xu yu zu vx vy vz
1045 3 12 2.17914 3.09023 2.11434 -1.17965 -0.924758 1.71186
ITEM: TIMESTEP
9500
ITEM: NUMBER OF ATOMS
1
ITEM: BOX BOUNDS pp pp pp
-2.0000000000000000e+00 1.0000000000000000e+01
-2.0000000000000000e+00 1.0000000000000000e+01
0.0000000000000000e+00 3.0000000000000000e+02
ITEM: ATOMS id type mol xu yu zu vx vy vz