ITEM: TIMESTEP
0
ITEM: NUMBER OF ATOMS
1
ITEM: BOX BOUNDS pp pp pp
-2.0000000000000000e+00 1.0000000000000000e+01
-2.0000000000000000e+00 1.0000000000000000e+01
0.0000000000000000e+00 3.0000000000000000e+02
ITEM: ATOMS id type mol xu yu zu vx vy vz
1045 3 12 7.01185 9.75192 1.59698 0 0 0
ITEM: TIMESTEP
100
ITEM: NUMBER OF ATOMS
1
ITEM: BOX BOUNDS pp pp pp
-2.0000000000000000e+00 1.0000000000000000e+01
-2.0000000000000000e+00 1.0000000000000000e+01
0.0000000000000000e+00 3.0000000000000000e+02
ITEM: ATOMS id type mol xu yu zu vx vy vz
1045 3 12 6.99423 9.75327 1.58995 -0.854258 0.0198109 -0.298308
ITEM: TIMESTEP
200
ITEM: NUMBER OF ATOMS
1
ITEM: BOX BOUNDS pp pp pp
-2.0000000000000000e+00 1.0000000000000000e+01
-2.0000000000000000e+00 1.0000000000000000e+01
0.0000000000000000e+00 3.0000000000000000e+02
ITEM: ATOMS id type mol xu yu zu vx vy vz
1045 3 12 6.93962 9.75658 1.57871 -1.63214 0.326606 -0.332918
ITEM: TIMESTEP
300
ITEM: NUMBER OF ATOMS
1
ITEM: BOX BOUNDS pp pp pp
-2.0000000000000000e+00 1.0000000000000000e+01
-2.0000000000000000e+00 1.0000000000000000e+01
0.0000000000000000e+00 3.0000000000000000e+02
ITEM: ATOMS id type mol xu yu zu vx vy vz
1045 3 12 6.85075 9.76906 1.56027 -2.36669 0.238767 -0.442045
ITEM: TIMESTEP
400
ITEM: NUMBER OF ATOMS
1
ITEM: BOX BOUNDS pp pp pp
-2.0000000000000000e+00 1.0000000000000000e+01
-2.0000000000000000e+00 1.0000000000000000e+01
0.0000000000000000e+00 3.0000000000000000e+02
ITEM: ATOMS id type mol xu yu zu vx vy vz
1045 3 12 6.7319 9.7826 1.542 -3.02727 0.186426 -0.483267
ITEM: TIMESTEP
500
ITEM: NUMBER OF ATOMS
1
ITEM: BOX BOUNDS pp pp pp
-2.0000000000000000e+00 1.0000000000000000e+01
-2.0000000000000000e+00 1.0000000000000000e+01
0.0000000000000000e+00 3.0000000000000000e+02
ITEM: ATOMS id type mol xu yu zu vx vy vz
1045 3 12 6.58135 9.78763 1.52261 -3.67114 0.250618 -0.425804
ITEM: TIMESTEP
600
ITEM: NUMBER OF ATOMS
1
ITEM: BOX BOUNDS pp pp pp
-2.0000000000000000e+00 1.0000000000000000e+01
-2.0000000000000000e+00 1.0000000000000000e+01
0.0000000000000000e+00 3.0000000000000000e+02
ITEM: ATOMS id type mol xu yu zu vx vy vz
1045 3 12 6.40452 9.80208 1.50408 -4.13404 0.418116 -0.43909
ITEM: TIMESTEP
700
ITEM: NUMBER OF ATOMS
1
ITEM: BOX BOUNDS pp pp pp
-2.0000000000000000e+00 1.0000000000000000e+01
-2.0000000000000000e+00 1.0000000000000000e+01
0.0000000000000000e+00 3.0000000000000000e+02
ITEM: ATOMS id type mol xu yu zu vx vy vz
1045 3 12 6.20458 9.80712 1.48136 -4.68192 -0.0323277 -0.437284
ITEM: TIMESTEP
800
ITEM: NUMBER OF ATOMS
1
ITEM: BOX BOUNDS pp pp pp
-2.0000000000000000e+00 1.0000000000000000e+01
-2.0000000000000000e+00 1.0000000000000000e+01
0.0000000000000000e+00 3.0000000000000000e+02
ITEM: ATOMS id type mol xu yu zu vx vy vz
1045 3 12 5.98842 9.80201 1.45917 -4.93746 -0.166555 -0.499917
ITEM: TIMESTEP
900
ITEM: NUMBER OF ATOMS
1
ITEM: BOX BOUNDS pp pp pp
-2.0000000000000000e+00 1.0000000000000000e+01
-2.0000000000000000e+00 1.0000000000000000e+01
0.0000000000000000e+00 3.0000000000000000e+02
ITEM: ATOMS id type mol xu yu zu vx vy vz
1045 3 12 5.76901 9.78672 1.43867 -4.60943 -0.462389 -0.325631
ITEM: TIMESTEP
1000
ITEM: NUMBER OF ATOMS
1
ITEM: BOX BOUNDS pp pp pp
-2.0000000000000000e+00 1.0000000000000000e+01
-2.0000000000000000e+00 1.0000000000000000e+01
0.0000000000000000e+00 3.0000000000000000e+02
ITEM: ATOMS id type mol xu yu zu vx vy vz
1045 3 12 5.57407 9.76588 1.42314 -3.93068 -0.386838 -0.272373
ITEM: TIMESTEP
1100
ITEM: NUMBER OF ATOMS
1
ITEM: BOX BOUNDS pp pp pp
-2.0000000000000000e+00 1.0000000000000000e+01
-2.0000000000000000e+00 1.0000000000000000e+01
0.0000000000000000e+00 3.0000000000000000e+02
ITEM: ATOMS id type mol xu yu zu vx vy vz
1045 3 12 5.41335 9.74932 1.40704 -3.27361 -0.297971 -0.259489
ITEM: TIMESTEP
1200
ITEM: NUMBER OF ATOMS
1
ITEM: BOX BOUNDS pp pp pp
-2.0000000000000000e+00 1.0000000000000000e+01
-2.0000000000000000e+00 1.0000000000000000e+01
0.0000000000000000e+00 3.0000000000000000e+02
ITEM: ATOMS id type mol xu yu zu vx vy vz
1045 3 12 5.27954 9.72994 1.40594 -2.66134 -0.5629 0.0935176
ITEM: TIMESTEP
1300
ITEM: NUMBER OF ATOMS
1
ITEM: BOX BOUNDS pp pp pp
-2.0000000000000000e+00 1.0000000000000000e+01
-2.0000000000000000e+00 1.0000000000000000e+01
0.0000000000000000e+00 3.0000000000000000e+02
ITEM: ATOMS id type mol xu yu zu vx vy vz
1045 3 12 5.18461 9.70709 1.41147 -1.57237 -0.471152 0.0891444
ITEM: TIMESTEP
1400
ITEM: NUMBER OF ATOMS
1
ITEM: BOX BOUNDS pp pp pp
-2.0000000000000000e+00 1.0000000000000000e+01
-2.0000000000000000e+00 1.0000000000000000e+01
0.0000000000000000e+00 3.0000000000000000e+02
ITEM: ATOMS id type mol xu yu zu vx vy vz
1045 3 12 5.1285 9.69181 1.42157 -0.854438 -0.235447 0.324946
ITEM: TIMESTEP
1500
ITEM: NUMBER OF ATOMS
1
ITEM: BOX BOUNDS pp pp pp
-2.0000000000000000e+00 1.0000000000000000e+01
-2.0000000000000000e+00 1.0000000000000000e+01
0.0000000000000000e+00 3.0000000000000000e+02
ITEM: ATOMS id type mol xu yu zu vx vy vz
1045 3 12 5.11339 9.69906 1.44183 0.0522904 0.536813 0.591052
ITEM: TIMESTEP
1600
ITEM: NUMBER OF ATOMS
1
ITEM: BOX BOUNDS pp pp pp
-2.0000000000000000e+00 1.0000000000000000e+01
-2.0000000000000000e+00 1.0000000000000000e+01
0.0000000000000000e+00 3.0000000000000000e+02
ITEM: ATOMS id type mol xu yu zu vx vy vz
1045 3 12 5.12762 9.73833 1.47296 0.747636 1.03794 0.76654
ITEM: TIMESTEP
1700
ITEM: NUMBER OF ATOMS
1
ITEM: BOX BOUNDS pp pp pp
-2.0000000000000000e+00 1.0000000000000000e+01
-2.0000000000000000e+00 1.0000000000000000e+01
0.0000000000000000e+00 3.0000000000000000e+02
ITEM: ATOMS id type mol xu yu zu vx vy vz
1045 3 12 5.17706 9.79439 1.5131 1.40423 1.38068 1.02058
ITEM: TIMESTEP
1800
ITEM: NUMBER OF ATOMS
1
ITEM: BOX BOUNDS pp pp pp
-2.0000000000000000e+00 1.0000000000000000e+01
-2.0000000000000000e+00 1.0000000000000000e+01
0.0000000000000000e+00 3.0000000000000000e+02
ITEM: ATOMS id type mol xu yu zu vx vy vz
1045 3 12 5.25465 9.85801 1.56264 2.15233 1.62825 1.14018
ITEM: TIMESTEP
1900
ITEM: NUMBER OF ATOMS
1
ITEM: BOX BOUNDS pp pp pp
-2.0000000000000000e+00 1.0000000000000000e+01
-2.0000000000000000e+00 1.0000000000000000e+01
0.0000000000000000e+00 3.0000000000000000e+02
ITEM: ATOMS id type mol xu yu zu vx vy vz
1045 3 12 5.36668 9.93391 1.60899 2.8967 1.76125 1.08536
ITEM: TIMESTEP
2000
ITEM: NUMBER OF ATOMS
1
ITEM: BOX BOUNDS pp pp pp
-2.0000000000000000e+00 1.0000000000000000e+01
-2.0000000000000000e+00 1.0000000000000000e+01
0.0000000000000000e+00 3.0000000000000000e+02
ITEM: ATOMS id type mol xu yu zu vx vy vz
1045 3 12 5.50104 10.0074 1.66471 3.19488 1.52987 1.3182
ITEM: TIMESTEP
2100
ITEM: NUMBER OF ATOMS
1
ITEM: BOX BOUNDS pp pp pp
-2.0000000000000000e+00 1.0000000000000000e+01
-2.0000000000000000e+00 1.0000000000000000e+01
0.0000000000000000e+00 3.0000000000000000e+02
ITEM: ATOMS id type mol xu yu zu vx vy vz
1045 3 12 5.64095 10.0669 1.72107 3.0797 0.939064 1.26274
ITEM: TIMESTEP
2200
ITEM: NUMBER OF ATOMS
1
ITEM: BOX BOUNDS pp pp pp
-2.0000000000000000e+00 1.0000000000000000e+01
-2.0000000000000000e+00 1.0000000000000000e+01
0.0000000000000000e+00 3.0000000000000000e+02
ITEM: ATOMS id type mol xu yu zu vx vy vz
1045 3 12 5.78577 10.0928 1.7748 3.28505 0.300047 1.18747
ITEM: TIMESTEP
2300
ITEM: NUMBER OF ATOMS
1
ITEM: BOX BOUNDS pp pp pp
-2.0000000000000000e+00 1.0000000000000000e+01
-2.0000000000000000e+00 1.0000000000000000e+01
0.0000000000000000e+00 3.0000000000000000e+02
ITEM: ATOMS id type mol xu yu zu vx vy vz
1045 3 12 5.93905 10.0861 1.82299 3.46424 -0.829518 1.05309
ITEM: TIMESTEP
2400
ITEM: NUMBER OF ATOMS
1
ITEM: BOX BOUNDS pp pp pp
-2.0000000000000000e+00 1.0000000000000000e+01
-2.0000000000000000e+00 1.0000000000000000e+01
0.0000000000000000e+00 3.0000000000000000e+02
ITEM: ATOMS id type mol xu yu zu vx vy vz
1045 3 12 6.08716 10.0305 1.8583 3.09438 -1.52545 0.614368
ITEM: TIMESTEP
2500
ITEM: NUMBER OF ATOMS
1
ITEM: BOX BOUNDS pp pp pp
-2.0000000000000000e+00 1.0000000000000000e+01
-2.0000000000000000e+00 1.0000000000000000e+01
0.0000000000000000e+00 3.0000000000000000e+02
ITEM: ATOMS id type mol xu yu zu vx vy vz
1045 3 12 6.21553 9.9439 1.8733 2.6087 -2.24854 0.048064
ITEM: TIMESTEP
2600
ITEM: NUMBER OF ATOMS
1
ITEM: BOX BOUNDS pp pp pp
-2.0000000000000000e+00 1.0000000000000000e+01
-2.0000000000000000e+00 1.0000000000000000e+01
0.0000000000000000e+00 3.0000000000000000e+02
ITEM: ATOMS id type mol xu yu zu vx vy vz
1045 3 12 6.31749 9.83235 1.87317 1.80732 -2.74548 0.0892018
ITEM: TIMESTEP
2700
ITEM: NUMBER OF ATOMS
1
ITEM: BOX BOUNDS pp pp pp
-2.0000000000000000e+00 1.0000000000000000e+01
-2.0000000000000000e+00 1.0000000000000000e+01
0.0000000000000000e+00 3.0000000000000000e+02
ITEM: ATOMS id type mol xu yu zu vx vy vz
1045 3 12 6.38644 9.70894 1.87312 1.01423 -2.62326 -0.047439
ITEM: TIMESTEP
2800
ITEM: NUMBER OF ATOMS
1
ITEM: BOX BOUNDS pp pp pp
-2.0000000000000000e+00 1.0000000000000000e+01
-2.0000000000000000e+00 1.0000000000000000e+01
0.0000000000000000e+00 3.0000000000000000e+02
ITEM: ATOMS id type mol xu yu zu vx vy vz
1045 3 12 6.40991 9.59273 1.87168 0.0323317 -2.48951 0.0361538
ITEM: TIMESTEP
2900
ITEM: NUMBER OF ATOMS
1
ITEM: BOX BOUNDS pp pp pp
-2.0000000000000000e+00 1.0000000000000000e+01
-2.0000000000000000e+00 1.0000000000000000e+01
0.0000000000000000e+00 3.0000000000000000e+02
ITEM: ATOMS id type mol xu yu zu vx vy vz
1045 3 12 6.39801 9.4865 1.87901 -0.61737 -2.21032 0.215213
ITEM: TIMESTEP
3000
ITEM: NUMBER OF ATOMS
1
ITEM: BOX BOUNDS pp pp pp
-2.0000000000000000e+00 1.0000000000000000e+01
-2.0000000000000000e+00 1.0000000000000000e+01
0.0000000000000000e+00 3.0000000000000000e+02
ITEM: ATOMS id type mol xu yu zu vx vy vz
1045 3 12 6.35334 9.39998 1.89288 -1.4255 -1.67153 0.547082
ITEM: TIMESTEP
3100
ITEM: NUMBER OF ATOMS
1
ITEM: BOX BOUNDS pp pp pp
-2.0000000000000000e+00 1.0000000000000000e+01
-2.0000000000000000e+00 1.0000000000000000e+01
0.0000000000000000e+00 3.0000000000000000e+02
ITEM: ATOMS id type mol xu yu zu vx vy vz
1045 3 12 6.27912 9.33683 1.92219 -1.88973 -0.999921 0.700762
ITEM: TIMESTEP
3200
ITEM: NUMBER OF ATOMS
1
ITEM: BOX BOUNDS pp pp pp
-2.0000000000000000e+00 1.0000000000000000e+01
-2.0000000000000000e+00 1.0000000000000000e+01
0.0000000000000000e+00 3.0000000000000000e+02
ITEM: ATOMS id type mol xu yu zu vx vy vz
1045 3 12 6.18473 9.30283 1.95452 -2.10388 -0.528503 0.799715
ITEM: TIMESTEP
3300
ITEM: NUMBER OF ATOMS
1
ITEM: BOX BOUNDS pp pp pp
-2.0000000000000000e+00 1.0000000000000000e+01
-2.0000000000000000e+00 1.0000000000000000e+01
0.0000000000000000e+00 3.0000000000000000e+02
ITEM: ATOMS id type mol xu yu zu vx vy vz
1045 3 12 6.08414 9.29243 1.99221 -2.3604 0.0132124 0.875789
ITEM: TIMESTEP
3400
ITEM: NUMBER OF ATOMS
1
ITEM: BOX BOUNDS pp pp pp
-2.0000000000000000e+00 1.0000000000000000e+01
-2.0000000000000000e+00 1.0000000000000000e+01
0.0000000000000000e+00 3.0000000000000000e+02
ITEM: ATOMS id type mol xu yu zu vx vy vz
1045 3 12 5.97021 9.29955 2.031 -2.59795 0.557913 0.948765
ITEM: TIMESTEP
3500
ITEM: NUMBER OF ATOMS
1
ITEM: BOX BOUNDS pp pp pp
-2.0000000000000000e+00 1.0000000000000000e+01
-2.0000000000000000e+00 1.0000000000000000e+01
0.0000000000000000e+00 3.0000000000000000e+02
ITEM: ATOMS id type mol xu yu zu vx vy vz
1045 3 12 5.84771 9.34737 2.07414 -2.90237 1.34337 1.069
ITEM: TIMESTEP
3600
ITEM: NUMBER OF ATOMS
1
ITEM: BOX BOUNDS pp pp pp
-2.0000000000000000e+00 1.0000000000000000e+01
-2.0000000000000000e+00 1.0000000000000000e+01
0.0000000000000000e+00 3.0000000000000000e+02
ITEM: ATOMS id type mol xu yu zu vx vy vz
1045 3 12 5.71417 9.41433 2.13435 -2.86822 1.66727 1.53988
ITEM: TIMESTEP
3700
ITEM: NUMBER OF ATOMS
1
ITEM: BOX BOUNDS pp pp pp
-2.0000000000000000e+00 1.0000000000000000e+01
-2.0000000000000000e+00 1.0000000000000000e+01
0.0000000000000000e+00 3.0000000000000000e+02
ITEM: ATOMS id type mol xu yu zu vx vy vz
1045 3 12 5.58837 9.50854 2.2013 -2.57299 2.41741 1.52115
ITEM: TIMESTEP
3800
ITEM: NUMBER OF ATOMS
1
ITEM: BOX BOUNDS pp pp pp
-2.0000000000000000e+00 1.0000000000000000e+01
-2.0000000000000000e+00 1.0000000000000000e+01
0.0000000000000000e+00 3.0000000000000000e+02
ITEM: ATOMS id type mol xu yu zu vx vy vz
1045 3 12 5.48378 9.62752 2.27466 -2.06975 2.86191 1.8119
ITEM: TIMESTEP
3900
ITEM: NUMBER OF ATOMS
1
ITEM: BOX BOUNDS pp pp pp
-2.0000000000000000e+00 1.0000000000000000e+01
-2.0000000000000000e+00 1.0000000000000000e+01
0.0000000000000000e+00 3.0000000000000000e+02
ITEM: ATOMS id type mol xu yu zu vx vy vz
1045 3 12 5.40524 9.75854 2.35721 -1.38271 2.83454 1.90983
ITEM: TIMESTEP
4000
ITEM: NUMBER OF ATOMS
1
ITEM: BOX BOUNDS pp pp pp
-2.0000000000000000e+00 1.0000000000000000e+01
-2.0000000000000000e+00 1.0000000000000000e+01
0.0000000000000000e+00 3.0000000000000000e+02
ITEM: ATOMS id type mol xu yu zu vx vy vz
1045 3 12 5.35377 9.87893 2.44053 -0.86629 2.45202 1.64019
ITEM: TIMESTEP
4100
ITEM: NUMBER OF ATOMS
1
ITEM: BOX BOUNDS pp pp pp
-2.0000000000000000e+00 1.0000000000000000e+01
-2.0000000000000000e+00 1.0000000000000000e+01
0.0000000000000000e+00 3.0000000000000000e+02
ITEM: ATOMS id type mol xu yu zu vx vy vz
1045 3 12 5.3127 9.97719 2.50633 -0.992909 1.88486 1.36764
ITEM: TIMESTEP
4200
ITEM: NUMBER OF ATOMS
1
ITEM: BOX BOUNDS pp pp pp
-2.0000000000000000e+00 1.0000000000000000e+01
-2.0000000000000000e+00 1.0000000000000000e+01
0.0000000000000000e+00 3.0000000000000000e+02
ITEM: ATOMS id type mol xu yu zu vx vy vz
1045 3 12 5.27432 10.0509 2.56648 -0.683452 1.37461 1.21201
ITEM: TIMESTEP
4300
ITEM: NUMBER OF ATOMS
1
ITEM: BOX BOUNDS pp pp pp
-2.0000000000000000e+00 1.0000000000000000e+01
-2.0000000000000000e+00 1.0000000000000000e+01
0.0000000000000000e+00 3.0000000000000000e+02
ITEM: ATOMS id type mol xu yu zu vx vy vz
1045 3 12 5.25555 10.1013 2.62137 -0.117059 0.692058 1.23462
ITEM: TIMESTEP
4400
ITEM: NUMBER OF ATOMS
1
ITEM: BOX BOUNDS pp pp pp
-2.0000000000000000e+00 1.0000000000000000e+01
-2.0000000000000000e+00 1.0000000000000000e+01
0.0000000000000000e+00 3.0000000000000000e+02
ITEM: ATOMS id type mol xu yu zu vx vy vz
1045 3 12 5.25037 10.1152 2.68498 -0.0888581 0.0123543 1.46795
ITEM: TIMESTEP
4500
ITEM: NUMBER OF ATOMS
1
ITEM: BOX BOUNDS pp pp pp
-2.0000000000000000e+00 1.0000000000000000e+01
-2.0000000000000000e+00 1.0000000000000000e+01
0.0000000000000000e+00 3.0000000000000000e+02
ITEM: ATOMS id type mol xu yu zu vx vy vz
1045 3 12 5.24483 10.0999 2.74416 -0.231911 -0.682496 1.17381
ITEM: TIMESTEP
4600
ITEM: NUMBER OF ATOMS
1
ITEM: BOX BOUNDS pp pp pp
-2.0000000000000000e+00 1.0000000000000000e+01
-2.0000000000000000e+00 1.0000000000000000e+01
0.0000000000000000e+00 3.0000000000000000e+02
ITEM: ATOMS id type mol xu yu zu vx vy vz
1045 3 12 5.23155 10.0561 2.79305 -0.484719 -1.28014 0.909066
ITEM: TIMESTEP
4700
ITEM: NUMBER OF ATOMS
1
ITEM: BOX BOUNDS pp pp pp
-2.0000000000000000e+00 1.0000000000000000e+01
-2.0000000000000000e+00 1.0000000000000000e+01
0.0000000000000000e+00 3.0000000000000000e+02
ITEM: ATOMS id type mol xu yu zu vx vy vz
1045 3 12 5.20135 9.98553 2.8282 -0.787218 -1.86972 0.627019
ITEM: TIMESTEP
4800
ITEM: NUMBER OF ATOMS
1
ITEM: BOX BOUNDS pp pp pp
-2.0000000000000000e+00 1.0000000000000000e+01
-2.0000000000000000e+00 1.0000000000000000e+01
0.0000000000000000e+00 3.0000000000000000e+02
ITEM: ATOMS id type mol xu yu zu vx vy vz
1045 3 12 5.16371 9.89551 2.85032 -0.911781 -2.03554 0.407349
ITEM: TIMESTEP
4900
ITEM: NUMBER OF ATOMS
1
ITEM: BOX BOUNDS pp pp pp
-2.0000000000000000e+00 1.0000000000000000e+01
-2.0000000000000000e+00 1.0000000000000000e+01
0.0000000000000000e+00 3.0000000000000000e+02
ITEM: ATOMS id type mol xu yu zu vx vy vz
1045 3 12 5.11637 9.80156 2.86513 -1.07305 -2.05997 0.273437
ITEM: TIMESTEP
5000
ITEM: NUMBER OF ATOMS
1
ITEM: BOX BOUNDS pp pp pp
-2.0000000000000000e+00 1.0000000000000000e+01
-2.0000000000000000e+00 1.0000000000000000e+01
0.0000000000000000e+00 3.0000000000000000e+02
ITEM: ATOMS id type mol xu yu zu vx vy vz
1045 3 12 5.06862 9.70854 2.88128 -1.20064 -2.11406 0.291762
ITEM: TIMESTEP
5100
ITEM: NUMBER OF ATOMS
1
ITEM: BOX BOUNDS pp pp pp
-2.0000000000000000e+00 1.0000000000000000e+01
-2.0000000000000000e+00 1.0000000000000000e+01
0.0000000000000000e+00 3.0000000000000000e+02
ITEM: ATOMS id type mol xu yu zu vx vy vz
1045 3 12 5.02144 9.61223 2.89157 -0.94514 -2.28536 0.342225
ITEM: TIMESTEP
5200
ITEM: NUMBER OF ATOMS
1
ITEM: BOX BOUNDS pp pp pp
-2.0000000000000000e+00 1.0000000000000000e+01
-2.0000000000000000e+00 1.0000000000000000e+01
0.0000000000000000e+00 3.0000000000000000e+02
ITEM: ATOMS id type mol xu yu zu vx vy vz
1045 3 12 4.97828 9.52081 2.91049 -0.898528 -2.02325 0.547164
ITEM: TIMESTEP
5300
ITEM: NUMBER OF ATOMS
1
ITEM: BOX BOUNDS pp pp pp
-2.0000000000000000e+00 1.0000000000000000e+01
-2.0000000000000000e+00 1.0000000000000000e+01
0.0000000000000000e+00 3.0000000000000000e+02
ITEM: ATOMS id type mol xu yu zu vx vy vz
1045 3 12 4.95143 9.43357 2.9386 -0.262591 -1.64452 0.621557
ITEM: TIMESTEP
5400
ITEM: NUMBER OF ATOMS
1
ITEM: BOX BOUNDS pp pp pp
-2.0000000000000000e+00 1.0000000000000000e+01
-2.0000000000000000e+00 1.0000000000000000e+01
0.0000000000000000e+00 3.0000000000000000e+02
ITEM: ATOMS id type mol xu yu zu vx vy vz
1045 3 12 4.95895 9.37174 2.9755 0.575557 -1.01476 1.08506
ITEM: TIMESTEP
5500
ITEM: NUMBER OF ATOMS
1
ITEM: BOX BOUNDS pp pp pp
-2.0000000000000000e+00 1.0000000000000000e+01
-2.0000000000000000e+00 1.0000000000000000e+01
0.0000000000000000e+00 3.0000000000000000e+02
ITEM: ATOMS id type mol xu yu zu vx vy vz
1045 3 12 5.00477 9.34608 3.02493 1.43784 -0.106909 1.22321
ITEM: TIMESTEP
5600
ITEM: NUMBER OF ATOMS
1
ITEM: BOX BOUNDS pp pp pp
-2.0000000000000000e+00 1.0000000000000000e+01
-2.0000000000000000e+00 1.0000000000000000e+01
0.0000000000000000e+00 3.0000000000000000e+02
ITEM: ATOMS id type mol xu yu zu vx vy vz
1045 3 12 5.08357 9.35737 3.07955 2.14451 0.612364 1.19062
ITEM: TIMESTEP
5700
ITEM: NUMBER OF ATOMS
1
ITEM: BOX BOUNDS pp pp pp
-2.0000000000000000e+00 1.0000000000000000e+01
-2.0000000000000000e+00 1.0000000000000000e+01
0.0000000000000000e+00 3.0000000000000000e+02
ITEM: ATOMS id type mol xu yu zu vx vy vz
1045 3 12 5.18885 9.39807 3.14445 2.51701 1.23151 1.66941
ITEM: TIMESTEP
5800
ITEM: NUMBER OF ATOMS
1
ITEM: BOX BOUNDS pp pp pp
-2.0000000000000000e+00 1.0000000000000000e+01
-2.0000000000000000e+00 1.0000000000000000e+01
0.0000000000000000e+00 3.0000000000000000e+02
ITEM: ATOMS id type mol xu yu zu vx vy vz
1045 3 12 5.3063 9.46602 3.22101 2.65649 1.73026 1.78977
ITEM: TIMESTEP
5900
ITEM: NUMBER OF ATOMS
1
ITEM: BOX BOUNDS pp pp pp
-2.0000000000000000e+00 1.0000000000000000e+01
-2.0000000000000000e+00 1.0000000000000000e+01
0.0000000000000000e+00 3.0000000000000000e+02
ITEM: ATOMS id type mol xu yu zu vx vy vz
1045 3 12 5.42748 9.5499 3.29831 2.78816 1.82438 1.57157
ITEM: TIMESTEP
6000
ITEM: NUMBER OF ATOMS
1
ITEM: BOX BOUNDS pp pp pp
-2.0000000000000000e+00 1.0000000000000000e+01
-2.0000000000000000e+00 1.0000000000000000e+01
0.0000000000000000e+00 3.0000000000000000e+02
ITEM: ATOMS id type mol xu yu zu vx vy vz
1045 3 12 5.56395 9.63533 3.36818 2.8365 1.86024 1.48472
ITEM: TIMESTEP
6100
ITEM: NUMBER OF ATOMS
1
ITEM: BOX BOUNDS pp pp pp
-2.0000000000000000e+00 1.0000000000000000e+01
-2.0000000000000000e+00 1.0000000000000000e+01
0.0000000000000000e+00 3.0000000000000000e+02
ITEM: ATOMS id type mol xu yu zu vx vy vz
1045 3 12 5.67665 9.71909 3.43098 2.17409 1.90256 1.24073
ITEM: TIMESTEP
6200
ITEM: NUMBER OF ATOMS
1
ITEM: BOX BOUNDS pp pp pp
-2.0000000000000000e+00 1.0000000000000000e+01
-2.0000000000000000e+00 1.0000000000000000e+01
0.0000000000000000e+00 3.0000000000000000e+02
ITEM: ATOMS id type mol xu yu zu vx vy vz
1045 3 12 5.76841 9.80507 3.47191 1.96605 1.89685 0.600206
ITEM: TIMESTEP
6300
ITEM: NUMBER OF ATOMS
1
ITEM: BOX BOUNDS pp pp pp
-2.0000000000000000e+00 1.0000000000000000e+01
-2.0000000000000000e+00 1.0000000000000000e+01
0.0000000000000000e+00 3.0000000000000000e+02
ITEM: ATOMS id type mol xu yu zu vx vy vz
1045 3 12 5.85052 9.88005 3.4821 1.57345 1.40965 -0.185085
ITEM: TIMESTEP
6400
ITEM: NUMBER OF ATOMS
1
ITEM: BOX BOUNDS pp pp pp
-2.0000000000000000e+00 1.0000000000000000e+01
-2.0000000000000000e+00 1.0000000000000000e+01
0.0000000000000000e+00 3.0000000000000000e+02
ITEM: ATOMS id type mol xu yu zu vx vy vz
1045 3 12 5.90685 9.92669 3.46344 1.01731 0.685533 -0.773632
ITEM: TIMESTEP
6500
ITEM: NUMBER OF ATOMS
1
ITEM: BOX BOUNDS pp pp pp
-2.0000000000000000e+00 1.0000000000000000e+01
-2.0000000000000000e+00 1.0000000000000000e+01
0.0000000000000000e+00 3.0000000000000000e+02
ITEM: ATOMS id type mol xu yu zu vx vy vz
1045 3 12 5.9371 9.95046 3.42068 0.314566 0.3015 -1.22363
ITEM: TIMESTEP
6600
ITEM: NUMBER OF ATOMS
1
ITEM: BOX BOUNDS pp pp pp
-2.0000000000000000e+00 1.0000000000000000e+01
-2.0000000000000000e+00 1.0000000000000000e+01
0.0000000000000000e+00 3.0000000000000000e+02
ITEM: ATOMS id type mol xu yu zu vx vy vz
1045 3 12 5.94137 9.96093 3.3521 -0.166322 0.0443469 -1.73769
ITEM: TIMESTEP
6700
ITEM: NUMBER OF ATOMS
1
ITEM: BOX BOUNDS pp pp pp
-2.0000000000000000e+00 1.0000000000000000e+01
-2.0000000000000000e+00 1.0000000000000000e+01
0.0000000000000000e+00 3.0000000000000000e+02
ITEM: ATOMS id type mol xu yu zu vx vy vz
1045 3 12 5.92319 9.95905 3.27285 -0.5412 -0.0451751 -1.73911
ITEM: TIMESTEP
6800
ITEM: NUMBER OF ATOMS
1
ITEM: BOX BOUNDS pp pp pp
-2.0000000000000000e+00 1.0000000000000000e+01
-2.0000000000000000e+00 1.0000000000000000e+01
0.0000000000000000e+00 3.0000000000000000e+02
ITEM: ATOMS id type mol xu yu zu vx vy vz
1045 3 12 5.89459 9.95515 3.19107 -0.915348 -0.080246 -1.91717
ITEM: TIMESTEP
6900
ITEM: NUMBER OF ATOMS
1
ITEM: BOX BOUNDS pp pp pp
-2.0000000000000000e+00 1.0000000000000000e+01
-2.0000000000000000e+00 1.0000000000000000e+01
0.0000000000000000e+00 3.0000000000000000e+02
ITEM: ATOMS id type mol xu yu zu vx vy vz
1045 3 12 5.85338 9.96054 3.1061 -0.838994 0.329222 -1.83215
ITEM: TIMESTEP
7000
ITEM: NUMBER OF ATOMS
1
ITEM: BOX BOUNDS pp pp pp
-2.0000000000000000e+00 1.0000000000000000e+01
-2.0000000000000000e+00 1.0000000000000000e+01
0.0000000000000000e+00 3.0000000000000000e+02
ITEM: ATOMS id type mol xu yu zu vx vy vz
1045 3 12 5.81337 9.97807 3.02603 -0.800739 0.63897 -1.73985
ITEM: TIMESTEP
7100
ITEM: NUMBER OF ATOMS
1
ITEM: BOX BOUNDS pp pp pp
-2.0000000000000000e+00 1.0000000000000000e+01
-2.0000000000000000e+00 1.0000000000000000e+01
0.0000000000000000e+00 3.0000000000000000e+02
ITEM: ATOMS id type mol xu yu zu vx vy vz
1045 3 12 5.7818 10.0183 2.9503 -0.564542 1.10544 -1.69754
ITEM: TIMESTEP
7200
ITEM: NUMBER OF ATOMS
1
ITEM: BOX BOUNDS pp pp pp
-2.0000000000000000e+00 1.0000000000000000e+01
-2.0000000000000000e+00 1.0000000000000000e+01
0.0000000000000000e+00 3.0000000000000000e+02
ITEM: ATOMS id type mol xu yu zu vx vy vz
1045 3 12 5.76236 10.0738 2.87281 -0.153445 1.46484 -1.90931
ITEM: TIMESTEP
7300
ITEM: NUMBER OF ATOMS
1
ITEM: BOX BOUNDS pp pp pp
-2.0000000000000000e+00 1.0000000000000000e+01
-2.0000000000000000e+00 1.0000000000000000e+01
0.0000000000000000e+00 3.0000000000000000e+02
ITEM: ATOMS id type mol xu yu zu vx vy vz
1045 3 12 5.76221 10.1375 2.78276 0.13482 1.37403 -2.14123
ITEM: TIMESTEP
7400
ITEM: NUMBER OF ATOMS
1
ITEM: BOX BOUNDS pp pp pp
-2.0000000000000000e+00 1.0000000000000000e+01
-2.0000000000000000e+00 1.0000000000000000e+01
0.0000000000000000e+00 3.0000000000000000e+02
ITEM: ATOMS id type mol xu yu zu vx vy vz
1045 3 12 5.76589 10.1955 2.68934 0.000244487 1.15664 -1.9663
ITEM: TIMESTEP
7500
ITEM: NUMBER OF ATOMS
1
ITEM: BOX BOUNDS pp pp pp
-2.0000000000000000e+00 1.0000000000000000e+01
-2.0000000000000000e+00 1.0000000000000000e+01
0.0000000000000000e+00 3.0000000000000000e+02
ITEM: ATOMS id type mol xu yu zu vx vy vz
1045 3 12 5.76513 10.2468 2.60649 0.0171853 1.07194 -1.76569
ITEM: TIMESTEP
7600
ITEM: NUMBER OF ATOMS
1
ITEM: BOX BOUNDS pp pp pp
-2.0000000000000000e+00 1.0000000000000000e+01
-2.0000000000000000e+00 1.0000000000000000e+01
0.0000000000000000e+00 3.0000000000000000e+02
ITEM: ATOMS id type mol xu yu zu vx vy vz
1045 3 12 5.76747 10.2988 2.52527 0.00558934 1.13781 -1.86835
ITEM: TIMESTEP
7700
ITEM: NUMBER OF ATOMS
1
ITEM: BOX BOUNDS pp pp pp
-2.0000000000000000e+00 1.0000000000000000e+01
-2.0000000000000000e+00 1.0000000000000000e+01
0.0000000000000000e+00 3.0000000000000000e+02
ITEM: ATOMS id type mol xu yu zu vx vy vz
1045 3 12 5.77683 10.3381 2.44397 0.362693 0.554951 -1.71803
ITEM: TIMESTEP
7800
ITEM: NUMBER OF ATOMS
1
ITEM: BOX BOUNDS pp pp pp
-2.0000000000000000e+00 1.0000000000000000e+01
-2.0000000000000000e+00 1.0000000000000000e+01
0.0000000000000000e+00 3.0000000000000000e+02
ITEM: ATOMS id type mol xu yu zu vx vy vz
1045 3 12 5.79977 10.3616 2.37336 0.732412 0.274198 -1.52422
ITEM: TIMESTEP
7900
ITEM: NUMBER OF ATOMS
1
ITEM: BOX BOUNDS pp pp pp
-2.0000000000000000e+00 1.0000000000000000e+01
-2.0000000000000000e+00 1.0000000000000000e+01
0.0000000000000000e+00 3.0000000000000000e+02
ITEM: ATOMS id type mol xu yu zu vx vy vz
1045 3 12 5.83129 10.3601 2.30847 0.763749 -0.408247 -1.38438
ITEM: TIMESTEP
8000
ITEM: NUMBER OF ATOMS
1
ITEM: BOX BOUNDS pp pp pp
-2.0000000000000000e+00 1.0000000000000000e+01
-2.0000000000000000e+00 1.0000000000000000e+01
0.0000000000000000e+00 3.0000000000000000e+02
ITEM: ATOMS id type mol xu yu zu vx vy vz
1045 3 12 5.87221 10.3412 2.24962 0.9219 -0.506471 -1.18599
ITEM: TIMESTEP
8100
ITEM: NUMBER OF ATOMS
1
ITEM: BOX BOUNDS pp pp pp
-2.0000000000000000e+00 1.0000000000000000e+01
-2.0000000000000000e+00 1.0000000000000000e+01
0.0000000000000000e+00 3.0000000000000000e+02
ITEM: ATOMS id type mol xu yu zu vx vy vz
1045 3 12 5.9183 10.31 2.20111 0.89179 -0.816562 -1.1255
ITEM: TIMESTEP
8200
ITEM: NUMBER OF ATOMS
1
ITEM: BOX BOUNDS pp pp pp
-2.0000000000000000e+00 1.0000000000000000e+01
-2.0000000000000000e+00 1.0000000000000000e+01
0.0000000000000000e+00 3.0000000000000000e+02
ITEM: ATOMS id type mol xu yu zu vx vy vz
1045 3 12 5.95798 10.2649 2.15546 0.93238 -1.1314 -0.904302
ITEM: TIMESTEP
8300
ITEM: NUMBER OF ATOMS
1
ITEM: BOX BOUNDS pp pp pp
-2.0000000000000000e+00 1.0000000000000000e+01
-2.0000000000000000e+00 1.0000000000000000e+01
0.0000000000000000e+00 3.0000000000000000e+02
ITEM: ATOMS id type mol xu yu zu vx vy vz
1045 3 12 6.00088 10.2164 2.11948 1.00049 -1.1843 -0.767545
ITEM: TIMESTEP
8400
ITEM: NUMBER OF ATOMS
1
ITEM: BOX BOUNDS pp pp pp
-2.0000000000000000e+00 1.0000000000000000e+01
-2.0000000000000000e+00 1.0000000000000000e+01
0.0000000000000000e+00 3.0000000000000000e+02
ITEM: ATOMS id type mol xu yu zu vx vy vz
1045 3 12 6.04659 10.1583 2.08478 1.01192 -1.39191 -0.913509
ITEM: TIMESTEP
8500
ITEM: NUMBER OF ATOMS
1
ITEM: BOX BOUNDS pp pp pp
-2.0000000000000000e+00 1.0000000000000000e+01
-2.0000000000000000e+00 1.0000000000000000e+01
0.0000000000000000e+00 3.0000000000000000e+02
ITEM: ATOMS id type mol xu yu zu vx vy vz
1045 3 12 6.08771 10.0922 2.04817 0.932573 -1.49812 -0.712303
ITEM: TIMESTEP
8600
ITEM: NUMBER OF ATOMS
1
ITEM: BOX BOUNDS pp pp pp
-2.0000000000000000e+00 1.0000000000000000e+01
-2.0000000000000000e+00 1.0000000000000000e+01
0.0000000000000000e+00 3.0000000000000000e+02
ITEM: ATOMS id type mol xu yu zu vx vy vz
1045 3 12 6.11999 10.0355 2.02866 0.469681 -0.97959 -0.339031
ITEM: TIMESTEP
8700
ITEM: NUMBER OF ATOMS
1
ITEM: BOX BOUNDS pp pp pp
-2.0000000000000000e+00 1.0000000000000000e+01
-2.0000000000000000e+00 1.0000000000000000e+01
0.0000000000000000e+00 3.0000000000000000e+02
ITEM: ATOMS id type mol xu yu zu vx vy vz
1045 3 12 6.134 9.99278 2.01122 -0.0279619 -0.822337 -0.323574
ITEM: TIMESTEP
8800
ITEM: NUMBER OF ATOMS
1
ITEM: BOX BOUNDS pp pp pp
-2.0000000000000000e+00 1.0000000000000000e+01
-2.0000000000000000e+00 1.0000000000000000e+01
0.0000000000000000e+00 3.0000000000000000e+02
ITEM: ATOMS id type mol xu yu zu vx vy vz
1045 3 12 6.13012 9.96733 2.00142 -0.100879 -0.365462 -0.0413406
ITEM: TIMESTEP
8900
ITEM: NUMBER OF ATOMS
1
ITEM: BOX BOUNDS pp pp pp
-2.0000000000000000e+00 1.0000000000000000e+01
-2.0000000000000000e+00 1.0000000000000000e+01
0.0000000000000000e+00 3.0000000000000000e+02
ITEM: ATOMS id type mol xu yu zu vx vy vz
1045 3 12 6.1192 9.95973 1.99794 -0.410709 -0.0616181 -0.136445
ITEM: TIMESTEP
9000
ITEM: NUMBER OF ATOMS
1
ITEM: BOX BOUNDS pp pp pp
-2.0000000000000000e+00 1.0000000000000000e+01
-2.0000000000000000e+00 1.0000000000000000e+01
0.0000000000000000e+00 3.0000000000000000e+02
ITEM: ATOMS id type mol xu yu zu vx vy vz
1045 3 12 6.09584 9.96901 1.99811 -0.665593 0.36947 0.0269484
ITEM: TIMESTEP
9100
ITEM: NUMBER OF ATOMS
1
ITEM: BOX BOUNDS pp pp pp
-2.0000000000000000e+00 1.0000000000000000e+01
-2.0000000000000000e+00 1.0000000000000000e+01
0.0000000000000000e+00 3.0000000000000000e+02
ITEM: ATOMS id type mol xu yu zu vx vy vz
1045 3 12 6.06256 9.98012 2.00577 -0.755847 0.19702 0.22448
ITEM: TIMESTEP
9200
ITEM: NUMBER OF ATOMS
1
ITEM: BOX BOUNDS pp pp pp
-2.0000000000000000e+00 1.0000000000000000e+01
-2.0000000000000000e+00 1.0000000000000000e+01
0.0000000000000000e+00 3.0000000000000000e+02
ITEM: ATOMS id type mol xu yu zu vx vy vz
1045 3 12 6.02764 9.97926 2.01807 -0.831405 -0.109345 0.203747
ITEM: TIMESTEP
9300
ITEM: NUMBER OF ATOMS
1
ITEM: BOX BOUNDS pp pp pp
-2.0000000000000000e+00 1.0000000000000000e+01
-2.0000000000000000e+00 1.0000000000000000e+01
0.0000000000000000e+00 3.0000000000000000e+02
ITEM: ATOMS id type mol xu yu zu vx vy vz
1045 3 12 5.98198 9.96546 2.0273 -1.06586 -0.301456 0.244416
ITEM: TIMESTEP
9400
ITEM: NUMBER OF ATOMS
1
ITEM: BOX BOUNDS pp pp pp
-2.0000000000000000e+00 1.0000000000000000e+01
-2.0000000000000000e+00 1.0000000000000000e+01
0.0000000000000000e+00 3.0000000000000000e+02
ITEM: ATOMS id type mol xu yu zu vx vy vz
1045 3 12 5.93765 9.96393 2.04625 -0.906768 0.129971 0.514351
ITEM: TIMESTEP
9500
ITEM: NUMBER OF ATOMS
1
ITEM: BOX BOUNDS pp pp pp
-2.0000000000000000e+00 1.0000000000000000e+01
-2.0000000000000000e+00 1.0000000000000000e+01
0.0000000000000000e+00 3.0000000000000000e+02
ITEM: ATOMS id type mol xu yu zu vx vy vz
1045 3 12 5.9053 9.98075 2.06922 -0.377594 0.508233 0.4375
ITEM: TIMESTEP
9600