ITEM: TIMESTEP
0
ITEM: NUMBER OF ATOMS
1
ITEM: BOX BOUNDS pp pp pp
-2.0000000000000000e+00 1.0000000000000000e+01
-2.0000000000000000e+00 1.0000000000000000e+01
0.0000000000000000e+00 3.0000000000000000e+02
ITEM: ATOMS id type mol xu yu zu vx vy vz
1045 3 12 3.89564 3.23254 1.38543 0 0 0
ITEM: TIMESTEP
100
ITEM: NUMBER OF ATOMS
1
ITEM: BOX BOUNDS pp pp pp
-2.0000000000000000e+00 1.0000000000000000e+01
-2.0000000000000000e+00 1.0000000000000000e+01
0.0000000000000000e+00 3.0000000000000000e+02
ITEM: ATOMS id type mol xu yu zu vx vy vz
1045 3 12 3.22073 2.33872 0.66237 -15.5089 -21.0068 -14.972
ITEM: TIMESTEP
200
ITEM: NUMBER OF ATOMS
1
ITEM: BOX BOUNDS pp pp pp
-2.0000000000000000e+00 1.0000000000000000e+01
-2.0000000000000000e+00 1.0000000000000000e+01
0.0000000000000000e+00 3.0000000000000000e+02
ITEM: ATOMS id type mol xu yu zu vx vy vz
1045 3 12 2.88305 2.01553 1.73506 -6.70211 -4.92842 30.8662
ITEM: TIMESTEP
300
ITEM: NUMBER OF ATOMS
1
ITEM: BOX BOUNDS pp pp pp
-2.0000000000000000e+00 1.0000000000000000e+01
-2.0000000000000000e+00 1.0000000000000000e+01
0.0000000000000000e+00 3.0000000000000000e+02
ITEM: ATOMS id type mol xu yu zu vx vy vz
1045 3 12 2.5766 1.78919 3.11625 -6.80801 -5.13208 30.5563
ITEM: TIMESTEP
400
ITEM: NUMBER OF ATOMS
1
ITEM: BOX BOUNDS pp pp pp
-2.0000000000000000e+00 1.0000000000000000e+01
-2.0000000000000000e+00 1.0000000000000000e+01
0.0000000000000000e+00 3.0000000000000000e+02
ITEM: ATOMS id type mol xu yu zu vx vy vz
1045 3 12 2.28704 1.54332 4.47796 -5.69317 -5.91317 29.8826
ITEM: TIMESTEP
500
ITEM: NUMBER OF ATOMS
1
ITEM: BOX BOUNDS pp pp pp
-2.0000000000000000e+00 1.0000000000000000e+01
-2.0000000000000000e+00 1.0000000000000000e+01
0.0000000000000000e+00 3.0000000000000000e+02
ITEM: ATOMS id type mol xu yu zu vx vy vz
1045 3 12 2.0578 1.24931 5.82323 -4.56611 -7.05451 30.0197
ITEM: TIMESTEP
600
ITEM: NUMBER OF ATOMS
1
ITEM: BOX BOUNDS pp pp pp
-2.0000000000000000e+00 1.0000000000000000e+01
-2.0000000000000000e+00 1.0000000000000000e+01
0.0000000000000000e+00 3.0000000000000000e+02
ITEM: ATOMS id type mol xu yu zu vx vy vz
1045 3 12 1.86872 0.91079 7.17586 -3.95844 -7.9781 29.9941
ITEM: TIMESTEP
700
ITEM: NUMBER OF ATOMS
1
ITEM: BOX BOUNDS pp pp pp
-2.0000000000000000e+00 1.0000000000000000e+01
-2.0000000000000000e+00 1.0000000000000000e+01
0.0000000000000000e+00 3.0000000000000000e+02
ITEM: ATOMS id type mol xu yu zu vx vy vz
1045 3 12 1.69879 0.537566 8.5186 -3.73005 -8.544 29.6581
ITEM: TIMESTEP
800
ITEM: NUMBER OF ATOMS
1
ITEM: BOX BOUNDS pp pp pp
-2.0000000000000000e+00 1.0000000000000000e+01
-2.0000000000000000e+00 1.0000000000000000e+01
0.0000000000000000e+00 3.0000000000000000e+02
ITEM: ATOMS id type mol xu yu zu vx vy vz
1045 3 12 1.53542 0.148664 9.84346 -3.62794 -8.65989 29.2331
ITEM: TIMESTEP
900
ITEM: NUMBER OF ATOMS
1
ITEM: BOX BOUNDS pp pp pp
-2.0000000000000000e+00 1.0000000000000000e+01
-2.0000000000000000e+00 1.0000000000000000e+01
0.0000000000000000e+00 3.0000000000000000e+02
ITEM: ATOMS id type mol xu yu zu vx vy vz
1045 3 12 1.36467 -0.235609 11.155 -4.09716 -8.41651 28.9836
ITEM: TIMESTEP
1000
ITEM: NUMBER OF ATOMS
1
ITEM: BOX BOUNDS pp pp pp
-2.0000000000000000e+00 1.0000000000000000e+01
-2.0000000000000000e+00 1.0000000000000000e+01
0.0000000000000000e+00 3.0000000000000000e+02
ITEM: ATOMS id type mol xu yu zu vx vy vz
1045 3 12 1.15976 -0.607863 12.4523 -4.88441 -7.96307 28.5531
ITEM: TIMESTEP
1100
ITEM: NUMBER OF ATOMS
1
ITEM: BOX BOUNDS pp pp pp
-2.0000000000000000e+00 1.0000000000000000e+01
-2.0000000000000000e+00 1.0000000000000000e+01
0.0000000000000000e+00 3.0000000000000000e+02
ITEM: ATOMS id type mol xu yu zu vx vy vz
1045 3 12 0.922987 -0.952063 13.7312 -5.54046 -7.35535 28.3391
ITEM: TIMESTEP
1200
ITEM: NUMBER OF ATOMS
1
ITEM: BOX BOUNDS pp pp pp
-2.0000000000000000e+00 1.0000000000000000e+01
-2.0000000000000000e+00 1.0000000000000000e+01
0.0000000000000000e+00 3.0000000000000000e+02
ITEM: ATOMS id type mol xu yu zu vx vy vz
1045 3 12 0.675057 -1.2614 15.0022 -5.56525 -6.38018 28.2116
ITEM: TIMESTEP
1300
ITEM: NUMBER OF ATOMS
1
ITEM: BOX BOUNDS pp pp pp
-2.0000000000000000e+00 1.0000000000000000e+01
-2.0000000000000000e+00 1.0000000000000000e+01
0.0000000000000000e+00 3.0000000000000000e+02
ITEM: ATOMS id type mol xu yu zu vx vy vz
1045 3 12 0.431122 -1.52913 16.2781 -5.2456 -5.55055 28.5268
ITEM: TIMESTEP
1400
ITEM: NUMBER OF ATOMS
1
ITEM: BOX BOUNDS pp pp pp
-2.0000000000000000e+00 1.0000000000000000e+01
-2.0000000000000000e+00 1.0000000000000000e+01
0.0000000000000000e+00 3.0000000000000000e+02
ITEM: ATOMS id type mol xu yu zu vx vy vz
1045 3 12 0.203026 -1.7662 17.5639 -4.95057 -5.03967 28.5663
ITEM: TIMESTEP
1500
ITEM: NUMBER OF ATOMS
1
ITEM: BOX BOUNDS pp pp pp
-2.0000000000000000e+00 1.0000000000000000e+01
-2.0000000000000000e+00 1.0000000000000000e+01
0.0000000000000000e+00 3.0000000000000000e+02
ITEM: ATOMS id type mol xu yu zu vx vy vz
1045 3 12 -0.0250338 -1.99367 18.8584 -5.22795 -4.97736 28.8434
ITEM: TIMESTEP
1600
ITEM: NUMBER OF ATOMS
1
ITEM: BOX BOUNDS pp pp pp
-2.0000000000000000e+00 1.0000000000000000e+01
-2.0000000000000000e+00 1.0000000000000000e+01
0.0000000000000000e+00 3.0000000000000000e+02
ITEM: ATOMS id type mol xu yu zu vx vy vz
1045 3 12 -0.253435 -2.21008 20.1613 -5.21378 -4.77758 28.9692
ITEM: TIMESTEP
1700
ITEM: NUMBER OF ATOMS
1
ITEM: BOX BOUNDS pp pp pp
-2.0000000000000000e+00 1.0000000000000000e+01
-2.0000000000000000e+00 1.0000000000000000e+01
0.0000000000000000e+00 3.0000000000000000e+02
ITEM: ATOMS id type mol xu yu zu vx vy vz
1045 3 12 -0.483272 -2.41002 21.4627 -5.04109 -4.31416 28.8647
ITEM: TIMESTEP
1800
ITEM: NUMBER OF ATOMS
1
ITEM: BOX BOUNDS pp pp pp
-2.0000000000000000e+00 1.0000000000000000e+01
-2.0000000000000000e+00 1.0000000000000000e+01
0.0000000000000000e+00 3.0000000000000000e+02
ITEM: ATOMS id type mol xu yu zu vx vy vz
1045 3 12 -0.712807 -2.6036 22.7615 -5.3282 -4.36837 28.8678
ITEM: TIMESTEP
1900
ITEM: NUMBER OF ATOMS
1
ITEM: BOX BOUNDS pp pp pp
-2.0000000000000000e+00 1.0000000000000000e+01
-2.0000000000000000e+00 1.0000000000000000e+01
0.0000000000000000e+00 3.0000000000000000e+02
ITEM: ATOMS id type mol xu yu zu vx vy vz
1045 3 12 -0.951293 -2.80024 24.053 -5.38243 -4.32833 28.4375
ITEM: TIMESTEP
2000
ITEM: NUMBER OF ATOMS
1
ITEM: BOX BOUNDS pp pp pp
-2.0000000000000000e+00 1.0000000000000000e+01
-2.0000000000000000e+00 1.0000000000000000e+01
0.0000000000000000e+00 3.0000000000000000e+02
ITEM: ATOMS id type mol xu yu zu vx vy vz
1045 3 12 -1.19709 -2.99429 25.3228 -5.37241 -4.31931 27.9536
ITEM: TIMESTEP
2100
ITEM: NUMBER OF ATOMS
1
ITEM: BOX BOUNDS pp pp pp
-2.0000000000000000e+00 1.0000000000000000e+01
-2.0000000000000000e+00 1.0000000000000000e+01
0.0000000000000000e+00 3.0000000000000000e+02
ITEM: ATOMS id type mol xu yu zu vx vy vz
1045 3 12 -1.42971 -3.18624 26.5605 -4.83531 -4.60616 26.9821
ITEM: TIMESTEP
2200
ITEM: NUMBER OF ATOMS
1
ITEM: BOX BOUNDS pp pp pp
-2.0000000000000000e+00 1.0000000000000000e+01
-2.0000000000000000e+00 1.0000000000000000e+01
0.0000000000000000e+00 3.0000000000000000e+02
ITEM: ATOMS id type mol xu yu zu vx vy vz
1045 3 12 -1.6208 -3.41726 27.7581 -3.5828 -5.96056 26.2781
ITEM: TIMESTEP
2300
ITEM: NUMBER OF ATOMS
1
ITEM: BOX BOUNDS pp pp pp
-2.0000000000000000e+00 1.0000000000000000e+01
-2.0000000000000000e+00 1.0000000000000000e+01
0.0000000000000000e+00 3.0000000000000000e+02
ITEM: ATOMS id type mol xu yu zu vx vy vz
1045 3 12 -1.73676 -3.7345 28.9202 -1.7237 -8.26593 25.4261
ITEM: TIMESTEP
2400
ITEM: NUMBER OF ATOMS
1
ITEM: BOX BOUNDS pp pp pp
-2.0000000000000000e+00 1.0000000000000000e+01
-2.0000000000000000e+00 1.0000000000000000e+01
0.0000000000000000e+00 3.0000000000000000e+02
ITEM: ATOMS id type mol xu yu zu vx vy vz
1045 3 12 -1.79892 -4.15043 30.0645 -1.18127 -9.88235 25.644
ITEM: TIMESTEP
2500
ITEM: NUMBER OF ATOMS
1
ITEM: BOX BOUNDS pp pp pp
-2.0000000000000000e+00 1.0000000000000000e+01
-2.0000000000000000e+00 1.0000000000000000e+01
0.0000000000000000e+00 3.0000000000000000e+02
ITEM: ATOMS id type mol xu yu zu vx vy vz
1045 3 12 -1.85113 -4.603 31.2361 -1.15204 -10.0256 26.3188
ITEM: TIMESTEP
2600
ITEM: NUMBER OF ATOMS
1
ITEM: BOX BOUNDS pp pp pp
-2.0000000000000000e+00 1.0000000000000000e+01
-2.0000000000000000e+00 1.0000000000000000e+01
0.0000000000000000e+00 3.0000000000000000e+02
ITEM: ATOMS id type mol xu yu zu vx vy vz
1045 3 12 -1.9031 -5.05245 32.4331 -1.23344 -9.9412 26.7723
ITEM: TIMESTEP
2700
ITEM: NUMBER OF ATOMS
1
ITEM: BOX BOUNDS pp pp pp
-2.0000000000000000e+00 1.0000000000000000e+01
-2.0000000000000000e+00 1.0000000000000000e+01
0.0000000000000000e+00 3.0000000000000000e+02
ITEM: ATOMS id type mol xu yu zu vx vy vz
1045 3 12 -1.9646 -5.48803 33.644 -1.25692 -9.45951 26.972
ITEM: TIMESTEP
2800
ITEM: NUMBER OF ATOMS
1
ITEM: BOX BOUNDS pp pp pp
-2.0000000000000000e+00 1.0000000000000000e+01
-2.0000000000000000e+00 1.0000000000000000e+01
0.0000000000000000e+00 3.0000000000000000e+02
ITEM: ATOMS id type mol xu yu zu vx vy vz
1045 3 12 -2.00075 -5.90336 34.8434 -0.0342424 -9.05472 26.2981
ITEM: TIMESTEP
2900
ITEM: NUMBER OF ATOMS
1
ITEM: BOX BOUNDS pp pp pp
-2.0000000000000000e+00 1.0000000000000000e+01
-2.0000000000000000e+00 1.0000000000000000e+01
0.0000000000000000e+00 3.0000000000000000e+02
ITEM: ATOMS id type mol xu yu zu vx vy vz
1045 3 12 -1.94215 -6.31109 36.013 2.50283 -9.24253 25.764
ITEM: TIMESTEP
3000
ITEM: NUMBER OF ATOMS
1
ITEM: BOX BOUNDS pp pp pp
-2.0000000000000000e+00 1.0000000000000000e+01
-2.0000000000000000e+00 1.0000000000000000e+01
0.0000000000000000e+00 3.0000000000000000e+02
ITEM: ATOMS id type mol xu yu zu vx vy vz
1045 3 12 -1.78405 -6.74841 37.1658 4.3593 -10.0899 25.5851
ITEM: TIMESTEP
3100
ITEM: NUMBER OF ATOMS
1
ITEM: BOX BOUNDS pp pp pp
-2.0000000000000000e+00 1.0000000000000000e+01
-2.0000000000000000e+00 1.0000000000000000e+01
0.0000000000000000e+00 3.0000000000000000e+02
ITEM: ATOMS id type mol xu yu zu vx vy vz
1045 3 12 -1.5696 -7.21235 38.3013 4.95484 -10.1885 24.8948
ITEM: TIMESTEP
3200
ITEM: NUMBER OF ATOMS
1
ITEM: BOX BOUNDS pp pp pp
-2.0000000000000000e+00 1.0000000000000000e+01
-2.0000000000000000e+00 1.0000000000000000e+01
0.0000000000000000e+00 3.0000000000000000e+02
ITEM: ATOMS id type mol xu yu zu vx vy vz
1045 3 12 -1.33101 -7.63871 39.4099 5.65118 -8.61226 24.1838
ITEM: TIMESTEP
3300
ITEM: NUMBER OF ATOMS
1
ITEM: BOX BOUNDS pp pp pp
-2.0000000000000000e+00 1.0000000000000000e+01
-2.0000000000000000e+00 1.0000000000000000e+01
0.0000000000000000e+00 3.0000000000000000e+02
ITEM: ATOMS id type mol xu yu zu vx vy vz
1045 3 12 -1.0578 -7.96203 40.4868 6.86631 -4.79586 23.2465
ITEM: TIMESTEP
3400
ITEM: NUMBER OF ATOMS
1
ITEM: BOX BOUNDS pp pp pp
-2.0000000000000000e+00 1.0000000000000000e+01
-2.0000000000000000e+00 1.0000000000000000e+01
0.0000000000000000e+00 3.0000000000000000e+02
ITEM: ATOMS id type mol xu yu zu vx vy vz
1045 3 12 -0.676147 -8.04045 41.5175 9.9218 0.513425 22.7551
ITEM: TIMESTEP
3500
ITEM: NUMBER OF ATOMS
1
ITEM: BOX BOUNDS pp pp pp
-2.0000000000000000e+00 1.0000000000000000e+01
-2.0000000000000000e+00 1.0000000000000000e+01
0.0000000000000000e+00 3.0000000000000000e+02
ITEM: ATOMS id type mol xu yu zu vx vy vz
1045 3 12 -0.179506 -7.96075 42.5376 11.8289 2.68674 22.614
ITEM: TIMESTEP
3600
ITEM: NUMBER OF ATOMS
1
ITEM: BOX BOUNDS pp pp pp
-2.0000000000000000e+00 1.0000000000000000e+01
-2.0000000000000000e+00 1.0000000000000000e+01
0.0000000000000000e+00 3.0000000000000000e+02
ITEM: ATOMS id type mol xu yu zu vx vy vz
1045 3 12 0.373057 -7.82563 43.5452 12.5453 3.28031 22.3313
ITEM: TIMESTEP
3700
ITEM: NUMBER OF ATOMS
1
ITEM: BOX BOUNDS pp pp pp
-2.0000000000000000e+00 1.0000000000000000e+01
-2.0000000000000000e+00 1.0000000000000000e+01
0.0000000000000000e+00 3.0000000000000000e+02
ITEM: ATOMS id type mol xu yu zu vx vy vz
1045 3 12 0.93328 -7.66687 44.5564 12.3354 3.66772 22.4229
ITEM: TIMESTEP
3800
ITEM: NUMBER OF ATOMS
1
ITEM: BOX BOUNDS pp pp pp
-2.0000000000000000e+00 1.0000000000000000e+01
-2.0000000000000000e+00 1.0000000000000000e+01
0.0000000000000000e+00 3.0000000000000000e+02
ITEM: ATOMS id type mol xu yu zu vx vy vz
1045 3 12 1.46714 -7.50875 45.5586 11.3767 3.50524 22.0602
ITEM: TIMESTEP
3900
ITEM: NUMBER OF ATOMS
1
ITEM: BOX BOUNDS pp pp pp
-2.0000000000000000e+00 1.0000000000000000e+01
-2.0000000000000000e+00 1.0000000000000000e+01
0.0000000000000000e+00 3.0000000000000000e+02
ITEM: ATOMS id type mol xu yu zu vx vy vz
1045 3 12 1.96328 -7.37546 46.5584 10.6581 2.44725 22.4332
ITEM: TIMESTEP
4000
ITEM: NUMBER OF ATOMS
1
ITEM: BOX BOUNDS pp pp pp
-2.0000000000000000e+00 1.0000000000000000e+01
-2.0000000000000000e+00 1.0000000000000000e+01
0.0000000000000000e+00 3.0000000000000000e+02
ITEM: ATOMS id type mol xu yu zu vx vy vz
1045 3 12 2.44124 -7.27559 47.5643 10.6614 2.08426 22.2338
ITEM: TIMESTEP
4100
ITEM: NUMBER OF ATOMS
1
ITEM: BOX BOUNDS pp pp pp
-2.0000000000000000e+00 1.0000000000000000e+01
-2.0000000000000000e+00 1.0000000000000000e+01
0.0000000000000000e+00 3.0000000000000000e+02
ITEM: ATOMS id type mol xu yu zu vx vy vz
1045 3 12 2.9281 -7.1909 48.5572 11.0262 1.90779 21.9742
ITEM: TIMESTEP
4200
ITEM: NUMBER OF ATOMS
1
ITEM: BOX BOUNDS pp pp pp
-2.0000000000000000e+00 1.0000000000000000e+01
-2.0000000000000000e+00 1.0000000000000000e+01
0.0000000000000000e+00 3.0000000000000000e+02
ITEM: ATOMS id type mol xu yu zu vx vy vz
1045 3 12 3.44385 -7.1096 49.5398 11.6637 1.90936 21.4844
ITEM: TIMESTEP
4300
ITEM: NUMBER OF ATOMS
1
ITEM: BOX BOUNDS pp pp pp
-2.0000000000000000e+00 1.0000000000000000e+01
-2.0000000000000000e+00 1.0000000000000000e+01
0.0000000000000000e+00 3.0000000000000000e+02
ITEM: ATOMS id type mol xu yu zu vx vy vz
1045 3 12 3.94193 -7.00768 50.4826 9.99105 2.6642 20.1626
ITEM: TIMESTEP
4400
ITEM: NUMBER OF ATOMS
1
ITEM: BOX BOUNDS pp pp pp
-2.0000000000000000e+00 1.0000000000000000e+01
-2.0000000000000000e+00 1.0000000000000000e+01
0.0000000000000000e+00 3.0000000000000000e+02
ITEM: ATOMS id type mol xu yu zu vx vy vz
1045 3 12 4.25416 -6.84142 51.2918 0.732116 5.92781 14.9526
ITEM: TIMESTEP
4500
ITEM: NUMBER OF ATOMS
1
ITEM: BOX BOUNDS pp pp pp
-2.0000000000000000e+00 1.0000000000000000e+01
-2.0000000000000000e+00 1.0000000000000000e+01
0.0000000000000000e+00 3.0000000000000000e+02
ITEM: ATOMS id type mol xu yu zu vx vy vz
1045 3 12 4.07804 -6.58914 51.9204 -7.17875 4.46747 13.6201
ITEM: TIMESTEP
4600
ITEM: NUMBER OF ATOMS
1
ITEM: BOX BOUNDS pp pp pp
-2.0000000000000000e+00 1.0000000000000000e+01
-2.0000000000000000e+00 1.0000000000000000e+01
0.0000000000000000e+00 3.0000000000000000e+02
ITEM: ATOMS id type mol xu yu zu vx vy vz
1045 3 12 3.67555 -6.41545 52.5353 -10.1095 3.35198 13.7606
ITEM: TIMESTEP
4700
ITEM: NUMBER OF ATOMS
1
ITEM: BOX BOUNDS pp pp pp
-2.0000000000000000e+00 1.0000000000000000e+01
-2.0000000000000000e+00 1.0000000000000000e+01
0.0000000000000000e+00 3.0000000000000000e+02
ITEM: ATOMS id type mol xu yu zu vx vy vz
1045 3 12 3.18973 -6.27991 53.1513 -11.3582 2.78501 13.5722
ITEM: TIMESTEP
4800
ITEM: NUMBER OF ATOMS
1
ITEM: BOX BOUNDS pp pp pp
-2.0000000000000000e+00 1.0000000000000000e+01
-2.0000000000000000e+00 1.0000000000000000e+01
0.0000000000000000e+00 3.0000000000000000e+02
ITEM: ATOMS id type mol xu yu zu vx vy vz
1045 3 12 2.6767 -6.17072 53.7664 -11.396 2.19734 13.7877
ITEM: TIMESTEP
4900
ITEM: NUMBER OF ATOMS
1
ITEM: BOX BOUNDS pp pp pp
-2.0000000000000000e+00 1.0000000000000000e+01
-2.0000000000000000e+00 1.0000000000000000e+01
0.0000000000000000e+00 3.0000000000000000e+02
ITEM: ATOMS id type mol xu yu zu vx vy vz
1045 3 12 2.18184 -6.08022 54.391 -10.4513 1.64316 13.9759
ITEM: TIMESTEP
5000
ITEM: NUMBER OF ATOMS
1
ITEM: BOX BOUNDS pp pp pp
-2.0000000000000000e+00 1.0000000000000000e+01
-2.0000000000000000e+00 1.0000000000000000e+01
0.0000000000000000e+00 3.0000000000000000e+02
ITEM: ATOMS id type mol xu yu zu vx vy vz
1045 3 12 1.72742 -6.01248 55.0256 -9.63365 1.4025 14.2956
ITEM: TIMESTEP
5100
ITEM: NUMBER OF ATOMS
1
ITEM: BOX BOUNDS pp pp pp
-2.0000000000000000e+00 1.0000000000000000e+01
-2.0000000000000000e+00 1.0000000000000000e+01
0.0000000000000000e+00 3.0000000000000000e+02
ITEM: ATOMS id type mol xu yu zu vx vy vz
1045 3 12 1.31034 -5.96733 55.689 -8.91412 0.629096 15.0307
ITEM: TIMESTEP
5200
ITEM: NUMBER OF ATOMS
1
ITEM: BOX BOUNDS pp pp pp
-2.0000000000000000e+00 1.0000000000000000e+01
-2.0000000000000000e+00 1.0000000000000000e+01
0.0000000000000000e+00 3.0000000000000000e+02
ITEM: ATOMS id type mol xu yu zu vx vy vz
1045 3 12 0.903114 -5.94829 56.3688 -9.07872 0.374289 15.1549
ITEM: TIMESTEP
5300
ITEM: NUMBER OF ATOMS
1
ITEM: BOX BOUNDS pp pp pp
-2.0000000000000000e+00 1.0000000000000000e+01
-2.0000000000000000e+00 1.0000000000000000e+01
0.0000000000000000e+00 3.0000000000000000e+02
ITEM: ATOMS id type mol xu yu zu vx vy vz
1045 3 12 0.492558 -5.92541 57.0484 -9.19848 0.617872 15.1477
ITEM: TIMESTEP
5400
ITEM: NUMBER OF ATOMS
1
ITEM: BOX BOUNDS pp pp pp
-2.0000000000000000e+00 1.0000000000000000e+01
-2.0000000000000000e+00 1.0000000000000000e+01
0.0000000000000000e+00 3.0000000000000000e+02
ITEM: ATOMS id type mol xu yu zu vx vy vz
1045 3 12 0.0748562 -5.88907 57.7182 -9.36694 0.99026 14.7383
ITEM: TIMESTEP
5500
ITEM: NUMBER OF ATOMS
1
ITEM: BOX BOUNDS pp pp pp
-2.0000000000000000e+00 1.0000000000000000e+01
-2.0000000000000000e+00 1.0000000000000000e+01
0.0000000000000000e+00 3.0000000000000000e+02
ITEM: ATOMS id type mol xu yu zu vx vy vz
1045 3 12 -0.34888 -5.83475 58.3773 -9.47853 1.30128 14.5035
ITEM: TIMESTEP
5600
ITEM: NUMBER OF ATOMS
1
ITEM: BOX BOUNDS pp pp pp
-2.0000000000000000e+00 1.0000000000000000e+01
-2.0000000000000000e+00 1.0000000000000000e+01
0.0000000000000000e+00 3.0000000000000000e+02
ITEM: ATOMS id type mol xu yu zu vx vy vz
1045 3 12 -0.779308 -5.7717 59.0321 -9.48057 1.51551 14.6064
ITEM: TIMESTEP
5700
ITEM: NUMBER OF ATOMS
1
ITEM: BOX BOUNDS pp pp pp
-2.0000000000000000e+00 1.0000000000000000e+01
-2.0000000000000000e+00 1.0000000000000000e+01
0.0000000000000000e+00 3.0000000000000000e+02
ITEM: ATOMS id type mol xu yu zu vx vy vz
1045 3 12 -1.203 -5.7116 59.682 -9.23434 1.14857 14.1772
ITEM: TIMESTEP
5800
ITEM: NUMBER OF ATOMS
1
ITEM: BOX BOUNDS pp pp pp
-2.0000000000000000e+00 1.0000000000000000e+01
-2.0000000000000000e+00 1.0000000000000000e+01
0.0000000000000000e+00 3.0000000000000000e+02
ITEM: ATOMS id type mol xu yu zu vx vy vz
1045 3 12 -1.60758 -5.66057 60.3122 -8.82804 1.14559 13.7318
ITEM: TIMESTEP
5900
ITEM: NUMBER OF ATOMS
1
ITEM: BOX BOUNDS pp pp pp
-2.0000000000000000e+00 1.0000000000000000e+01
-2.0000000000000000e+00 1.0000000000000000e+01
0.0000000000000000e+00 3.0000000000000000e+02
ITEM: ATOMS id type mol xu yu zu vx vy vz
1045 3 12 -2.00047 -5.61025 60.919 -8.70268 1.21424 13.1887
ITEM: TIMESTEP
6000
ITEM: NUMBER OF ATOMS
1
ITEM: BOX BOUNDS pp pp pp
-2.0000000000000000e+00 1.0000000000000000e+01
-2.0000000000000000e+00 1.0000000000000000e+01
0.0000000000000000e+00 3.0000000000000000e+02
ITEM: ATOMS id type mol xu yu zu vx vy vz
1045 3 12 -2.40158 -5.53994 61.5109 -9.14668 1.85616 13.1098
ITEM: TIMESTEP
6100
ITEM: NUMBER OF ATOMS
1
ITEM: BOX BOUNDS pp pp pp
-2.0000000000000000e+00 1.0000000000000000e+01
-2.0000000000000000e+00 1.0000000000000000e+01
0.0000000000000000e+00 3.0000000000000000e+02
ITEM: ATOMS id type mol xu yu zu vx vy vz
1045 3 12 -2.83329 -5.43344 62.1021 -9.96315 2.83028 13.0592
ITEM: TIMESTEP
6200
ITEM: NUMBER OF ATOMS
1
ITEM: BOX BOUNDS pp pp pp
-2.0000000000000000e+00 1.0000000000000000e+01
-2.0000000000000000e+00 1.0000000000000000e+01
0.0000000000000000e+00 3.0000000000000000e+02
ITEM: ATOMS id type mol xu yu zu vx vy vz
1045 3 12 -3.28582 -5.28549 62.6823 -10.303 3.51249 12.7046
ITEM: TIMESTEP
6300
ITEM: NUMBER OF ATOMS
1
ITEM: BOX BOUNDS pp pp pp
-2.0000000000000000e+00 1.0000000000000000e+01
-2.0000000000000000e+00 1.0000000000000000e+01
0.0000000000000000e+00 3.0000000000000000e+02
ITEM: ATOMS id type mol xu yu zu vx vy vz
1045 3 12 -3.74715 -5.12193 63.2531 -10.2508 3.64891 12.6693
ITEM: TIMESTEP
6400
ITEM: NUMBER OF ATOMS
1
ITEM: BOX BOUNDS pp pp pp
-2.0000000000000000e+00 1.0000000000000000e+01
-2.0000000000000000e+00 1.0000000000000000e+01
0.0000000000000000e+00 3.0000000000000000e+02
ITEM: ATOMS id type mol xu yu zu vx vy vz
1045 3 12 -4.20365 -4.96267 63.8176 -10.1134 3.52315 12.5631
ITEM: TIMESTEP
6500
ITEM: NUMBER OF ATOMS
1
ITEM: BOX BOUNDS pp pp pp
-2.0000000000000000e+00 1.0000000000000000e+01
-2.0000000000000000e+00 1.0000000000000000e+01
0.0000000000000000e+00 3.0000000000000000e+02
ITEM: ATOMS id type mol xu yu zu vx vy vz
1045 3 12 -4.65066 -4.83051 64.3781 -9.88549 2.49512 12.4558
ITEM: TIMESTEP
6600
ITEM: NUMBER OF ATOMS
1
ITEM: BOX BOUNDS pp pp pp
-2.0000000000000000e+00 1.0000000000000000e+01
-2.0000000000000000e+00 1.0000000000000000e+01
0.0000000000000000e+00 3.0000000000000000e+02
ITEM: ATOMS id type mol xu yu zu vx vy vz
1045 3 12 -5.09635 -4.73531 64.9332 -9.98316 1.58464 12.1962
ITEM: TIMESTEP
6700
ITEM: NUMBER OF ATOMS
1
ITEM: BOX BOUNDS pp pp pp
-2.0000000000000000e+00 1.0000000000000000e+01
-2.0000000000000000e+00 1.0000000000000000e+01
0.0000000000000000e+00 3.0000000000000000e+02
ITEM: ATOMS id type mol xu yu zu vx vy vz
1045 3 12 -5.54432 -4.6874 65.4713 -9.8898 0.548337 11.7939
ITEM: TIMESTEP
6800
ITEM: NUMBER OF ATOMS
1
ITEM: BOX BOUNDS pp pp pp
-2.0000000000000000e+00 1.0000000000000000e+01
-2.0000000000000000e+00 1.0000000000000000e+01
0.0000000000000000e+00 3.0000000000000000e+02
ITEM: ATOMS id type mol xu yu zu vx vy vz
1045 3 12 -5.97777 -4.68436 66.0022 -9.26934 -0.489016 11.7446
ITEM: TIMESTEP
6900
ITEM: NUMBER OF ATOMS
1
ITEM: BOX BOUNDS pp pp pp
-2.0000000000000000e+00 1.0000000000000000e+01
-2.0000000000000000e+00 1.0000000000000000e+01
0.0000000000000000e+00 3.0000000000000000e+02
ITEM: ATOMS id type mol xu yu zu vx vy vz
1045 3 12 -6.38836 -4.71782 66.5247 -8.88285 -1.04794 11.7252
ITEM: TIMESTEP
7000
ITEM: NUMBER OF ATOMS
1
ITEM: BOX BOUNDS pp pp pp
-2.0000000000000000e+00 1.0000000000000000e+01
-2.0000000000000000e+00 1.0000000000000000e+01
0.0000000000000000e+00 3.0000000000000000e+02
ITEM: ATOMS id type mol xu yu zu vx vy vz
1045 3 12 -6.75443 -4.76409 67.0499 -7.80296 -1.04568 11.7154
ITEM: TIMESTEP
7100
ITEM: NUMBER OF ATOMS
1
ITEM: BOX BOUNDS pp pp pp
-2.0000000000000000e+00 1.0000000000000000e+01
-2.0000000000000000e+00 1.0000000000000000e+01
0.0000000000000000e+00 3.0000000000000000e+02
ITEM: ATOMS id type mol xu yu zu vx vy vz
1045 3 12 -7.09762 -4.79906 67.5768 -7.6004 -0.384384 11.7841
ITEM: TIMESTEP
7200
ITEM: NUMBER OF ATOMS
1
ITEM: BOX BOUNDS pp pp pp
-2.0000000000000000e+00 1.0000000000000000e+01
-2.0000000000000000e+00 1.0000000000000000e+01
0.0000000000000000e+00 3.0000000000000000e+02
ITEM: ATOMS id type mol xu yu zu vx vy vz
1045 3 12 -7.44754 -4.79764 68.1102 -7.90043 0.514286 11.8077
ITEM: TIMESTEP
7300
ITEM: NUMBER OF ATOMS
1
ITEM: BOX BOUNDS pp pp pp
-2.0000000000000000e+00 1.0000000000000000e+01
-2.0000000000000000e+00 1.0000000000000000e+01
0.0000000000000000e+00 3.0000000000000000e+02
ITEM: ATOMS id type mol xu yu zu vx vy vz
1045 3 12 -7.80748 -4.75243 68.6413 -7.96919 1.44372 11.8001
ITEM: TIMESTEP
7400
ITEM: NUMBER OF ATOMS
1
ITEM: BOX BOUNDS pp pp pp
-2.0000000000000000e+00 1.0000000000000000e+01
-2.0000000000000000e+00 1.0000000000000000e+01
0.0000000000000000e+00 3.0000000000000000e+02
ITEM: ATOMS id type mol xu yu zu vx vy vz
1045 3 12 -8.1676 -4.66557 69.1747 -8.06113 2.27136 11.9384
ITEM: TIMESTEP
7500
ITEM: NUMBER OF ATOMS
1
ITEM: BOX BOUNDS pp pp pp
-2.0000000000000000e+00 1.0000000000000000e+01
-2.0000000000000000e+00 1.0000000000000000e+01
0.0000000000000000e+00 3.0000000000000000e+02
ITEM: ATOMS id type mol xu yu zu vx vy vz
1045 3 12 -8.5226 -4.55225 69.704 -7.64995 2.74682 11.6933
ITEM: TIMESTEP
7600
ITEM: NUMBER OF ATOMS
1
ITEM: BOX BOUNDS pp pp pp
-2.0000000000000000e+00 1.0000000000000000e+01
-2.0000000000000000e+00 1.0000000000000000e+01
0.0000000000000000e+00 3.0000000000000000e+02
ITEM: ATOMS id type mol xu yu zu vx vy vz
1045 3 12 -8.85378 -4.42186 70.2347 -7.10234 3.03632 11.9538
ITEM: TIMESTEP
7700
ITEM: NUMBER OF ATOMS
1
ITEM: BOX BOUNDS pp pp pp
-2.0000000000000000e+00 1.0000000000000000e+01
-2.0000000000000000e+00 1.0000000000000000e+01
0.0000000000000000e+00 3.0000000000000000e+02
ITEM: ATOMS id type mol xu yu zu vx vy vz
1045 3 12 -9.16292 -4.284 70.7666 -6.59776 3.04026 11.7228
ITEM: TIMESTEP
7800
ITEM: NUMBER OF ATOMS
1
ITEM: BOX BOUNDS pp pp pp
-2.0000000000000000e+00 1.0000000000000000e+01
-2.0000000000000000e+00 1.0000000000000000e+01
0.0000000000000000e+00 3.0000000000000000e+02
ITEM: ATOMS id type mol xu yu zu vx vy vz
1045 3 12 -9.44101 -4.15748 71.2912 -5.82377 2.5465 11.5841
ITEM: TIMESTEP
7900
ITEM: NUMBER OF ATOMS
1
ITEM: BOX BOUNDS pp pp pp
-2.0000000000000000e+00 1.0000000000000000e+01
-2.0000000000000000e+00 1.0000000000000000e+01
0.0000000000000000e+00 3.0000000000000000e+02
ITEM: ATOMS id type mol xu yu zu vx vy vz
1045 3 12 -9.69031 -4.04231 71.8108 -5.3772 2.46285 11.4277
ITEM: TIMESTEP
8000
ITEM: NUMBER OF ATOMS
1
ITEM: BOX BOUNDS pp pp pp
-2.0000000000000000e+00 1.0000000000000000e+01
-2.0000000000000000e+00 1.0000000000000000e+01
0.0000000000000000e+00 3.0000000000000000e+02
ITEM: ATOMS id type mol xu yu zu vx vy vz
1045 3 12 -9.92211 -3.93753 72.3275 -4.98956 2.37394 11.4567
ITEM: TIMESTEP
8100
ITEM: NUMBER OF ATOMS
1
ITEM: BOX BOUNDS pp pp pp
-2.0000000000000000e+00 1.0000000000000000e+01
-2.0000000000000000e+00 1.0000000000000000e+01
0.0000000000000000e+00 3.0000000000000000e+02
ITEM: ATOMS id type mol xu yu zu vx vy vz
1045 3 12 -10.131 -3.82217 72.8377 -4.32741 2.54962 11.324
ITEM: TIMESTEP
8200
ITEM: NUMBER OF ATOMS
1
ITEM: BOX BOUNDS pp pp pp
-2.0000000000000000e+00 1.0000000000000000e+01
-2.0000000000000000e+00 1.0000000000000000e+01
0.0000000000000000e+00 3.0000000000000000e+02
ITEM: ATOMS id type mol xu yu zu vx vy vz
1045 3 12 -10.3131 -3.69276 73.3536 -3.74465 3.15904 11.5773
ITEM: TIMESTEP
8300
ITEM: NUMBER OF ATOMS
1
ITEM: BOX BOUNDS pp pp pp
-2.0000000000000000e+00 1.0000000000000000e+01
-2.0000000000000000e+00 1.0000000000000000e+01
0.0000000000000000e+00 3.0000000000000000e+02
ITEM: ATOMS id type mol xu yu zu vx vy vz
1045 3 12 -10.4615 -3.54478 73.8763 -2.79295 3.67246 11.788
ITEM: TIMESTEP
8400
ITEM: NUMBER OF ATOMS
1
ITEM: BOX BOUNDS pp pp pp
-2.0000000000000000e+00 1.0000000000000000e+01
-2.0000000000000000e+00 1.0000000000000000e+01
0.0000000000000000e+00 3.0000000000000000e+02
ITEM: ATOMS id type mol xu yu zu vx vy vz
1045 3 12 -10.5585 -3.37378 74.4178 -1.47767 4.04911 12.1642
ITEM: TIMESTEP
8500
ITEM: NUMBER OF ATOMS
1
ITEM: BOX BOUNDS pp pp pp
-2.0000000000000000e+00 1.0000000000000000e+01
-2.0000000000000000e+00 1.0000000000000000e+01
0.0000000000000000e+00 3.0000000000000000e+02
ITEM: ATOMS id type mol xu yu zu vx vy vz
1045 3 12 -10.6064 -3.17413 74.9784 -0.623643 4.56071 12.6613
ITEM: TIMESTEP
8600
ITEM: NUMBER OF ATOMS
1
ITEM: BOX BOUNDS pp pp pp
-2.0000000000000000e+00 1.0000000000000000e+01
-2.0000000000000000e+00 1.0000000000000000e+01
0.0000000000000000e+00 3.0000000000000000e+02
ITEM: ATOMS id type mol xu yu zu vx vy vz
1045 3 12 -10.6185 -2.97258 75.548 0.0712775 4.36678 12.5691
ITEM: TIMESTEP
8700
ITEM: NUMBER OF ATOMS
1
ITEM: BOX BOUNDS pp pp pp
-2.0000000000000000e+00 1.0000000000000000e+01
-2.0000000000000000e+00 1.0000000000000000e+01
0.0000000000000000e+00 3.0000000000000000e+02
ITEM: ATOMS id type mol xu yu zu vx vy vz
1045 3 12 -10.605 -2.77515 76.1108 0.594933 4.26284 12.3094
ITEM: TIMESTEP
8800
ITEM: NUMBER OF ATOMS
1
ITEM: BOX BOUNDS pp pp pp
-2.0000000000000000e+00 1.0000000000000000e+01
-2.0000000000000000e+00 1.0000000000000000e+01
0.0000000000000000e+00 3.0000000000000000e+02
ITEM: ATOMS id type mol xu yu zu vx vy vz
1045 3 12 -10.5629 -2.59328 76.664 1.23819 3.82463 12.2395
ITEM: TIMESTEP
8900
ITEM: NUMBER OF ATOMS
1
ITEM: BOX BOUNDS pp pp pp
-2.0000000000000000e+00 1.0000000000000000e+01
-2.0000000000000000e+00 1.0000000000000000e+01
0.0000000000000000e+00 3.0000000000000000e+02
ITEM: ATOMS id type mol xu yu zu vx vy vz
1045 3 12 -10.5067 -2.42733 77.2046 1.24642 3.42965 11.7955
ITEM: TIMESTEP
9000
ITEM: NUMBER OF ATOMS
1
ITEM: BOX BOUNDS pp pp pp
-2.0000000000000000e+00 1.0000000000000000e+01
-2.0000000000000000e+00 1.0000000000000000e+01
0.0000000000000000e+00 3.0000000000000000e+02
ITEM: ATOMS id type mol xu yu zu vx vy vz
1045 3 12 -10.4472 -2.28779 77.7219 1.47247 2.86434 11.1566
ITEM: TIMESTEP
9100
ITEM: NUMBER OF ATOMS
1
ITEM: BOX BOUNDS pp pp pp
-2.0000000000000000e+00 1.0000000000000000e+01
-2.0000000000000000e+00 1.0000000000000000e+01
0.0000000000000000e+00 3.0000000000000000e+02
ITEM: ATOMS id type mol xu yu zu vx vy vz
1045 3 12 -10.3949 -2.15814 78.1973 0.934898 3.03171 9.8701
ITEM: TIMESTEP
9200
ITEM: NUMBER OF ATOMS
1
ITEM: BOX BOUNDS pp pp pp
-2.0000000000000000e+00 1.0000000000000000e+01
-2.0000000000000000e+00 1.0000000000000000e+01
0.0000000000000000e+00 3.0000000000000000e+02
ITEM: ATOMS id type mol xu yu zu vx vy vz
1045 3 12 -10.3563 -2.0219 78.6181 1.00418 2.77559 8.83504
ITEM: TIMESTEP
9300
ITEM: NUMBER OF ATOMS
1
ITEM: BOX BOUNDS pp pp pp
-2.0000000000000000e+00 1.0000000000000000e+01
-2.0000000000000000e+00 1.0000000000000000e+01
0.0000000000000000e+00 3.0000000000000000e+02
ITEM: ATOMS id type mol xu yu zu vx vy vz
1045 3 12 -10.3007 -1.90488 78.9936 1.41007 2.34973 7.82873
ITEM: TIMESTEP
9400
ITEM: NUMBER OF ATOMS
1
ITEM: BOX BOUNDS pp pp pp
-2.0000000000000000e+00 1.0000000000000000e+01
-2.0000000000000000e+00 1.0000000000000000e+01
0.0000000000000000e+00 3.0000000000000000e+02
ITEM: ATOMS id type mol xu yu zu vx vy vz
1045 3 12 -10.2298 -1.80527 79.3192 1.91963 2.10055 6.67307
ITEM: TIMESTEP
9500
ITEM: NUMBER OF ATOMS
1
ITEM: BOX BOUNDS pp pp pp
-2.0000000000000000e+00 1.0000000000000000e+01
-2.0000000000000000e+00 1.0000000000000000e+01
0.0000000000000000e+00 3.0000000000000000e+02
ITEM: ATOMS id type mol xu yu zu vx vy vz
1045 3 12 -10.1279 -1.71526 79.5987 2.64969 1.85045 5.63888
ITEM: TIMESTEP
9600
ITEM: NUMBER OF ATOMS